       N       E                     dE             d eps       ncg     rms          ort
DAV:   1     0.177430292155E+04    0.17743E+04   -0.91786E+04 10752   0.194E+03
DAV:   2     0.686182208732E+01   -0.17674E+04   -0.16752E+04 10752   0.477E+02
DAV:   3    -0.102021637884E+03   -0.10888E+03   -0.10698E+03 10752   0.126E+02
DAV:   4    -0.103690083105E+03   -0.16684E+01   -0.16680E+01 10752   0.156E+01
DAV:   5    -0.103724900636E+03   -0.34818E-01   -0.34817E-01 10752   0.218E+00
SDA:   6    -0.534692524000E+02    0.50256E+02   -0.34817E-01 10752   0.267E+03 0.000E+00
CGA:   7    -0.865183781806E+02   -0.33049E+02   -0.32310E+02 10752   0.192E+02 0.360E+01
CGA:   8    -0.888609919083E+02   -0.23426E+01   -0.23691E+01 10752   0.606E+02-0.610E-01
CGA:   9    -0.905848541529E+02   -0.17239E+01   -0.11308E+01 10752   0.189E+02 0.327E+02
CGA:  10    -0.910000987987E+02   -0.41524E+00   -0.43646E+00 10752   0.441E+01-0.956E+00
CGA:  11    -0.922173232629E+02   -0.12172E+01   -0.12061E+01 10752   0.653E+01 0.880E-01
CGA:  12    -0.924507004622E+02   -0.23338E+00   -0.23356E+00 10752   0.359E+01-0.373E-02
CGA:  13    -0.928834089193E+02   -0.43271E+00   -0.43163E+00 10752   0.971E+00-0.231E-02
CGA:  14    -0.929169397193E+02   -0.33531E-01   -0.33835E-01 10752   0.482E+00-0.715E-02
CGA:  15    -0.929592482273E+02   -0.42309E-01   -0.42514E-01 10752   0.372E+00-0.876E-03
CGA:  16    -0.929968865680E+02   -0.37638E-01   -0.37692E-01 10752   0.414E+00-0.343E-03
CGA:  17    -0.930103010016E+02   -0.13414E-01   -0.13693E-01 10752   0.675E-01-0.752E-02
CGA:  18    -0.930184459529E+02   -0.81450E-02   -0.81515E-02 10752   0.117E+00 0.576E-04
CGA:  19    -0.930247025240E+02   -0.62566E-02   -0.63037E-02 10752   0.889E-01-0.684E-03
CGA:  20    -0.930317592104E+02   -0.70567E-02   -0.70769E-02 10752   0.320E-01-0.102E-03
CGA:  21    -0.930336502445E+02   -0.18910E-02   -0.18989E-02 10752   0.446E-01-0.638E-04
CGA:  22    -0.930392332714E+02   -0.55830E-02   -0.55841E-02 10752   0.211E-01 0.488E-04
CGA:  23    -0.930402571800E+02   -0.10239E-02   -0.10292E-02 10752   0.206E-01-0.451E-04
CGA:  24    -0.930426176329E+02   -0.23605E-02   -0.23625E-02 10752   0.652E-02 0.688E-04
CGA:  25    -0.930428509157E+02   -0.23328E-03   -0.23304E-03 10752   0.321E-02-0.152E-04
CGA:  26    -0.930432769779E+02   -0.42606E-03   -0.42643E-03 10752   0.345E-02-0.602E-04
CGA:  27    -0.930434595734E+02   -0.18260E-03   -0.17982E-03 10752   0.244E-02-0.380E-04
CGA:  28    -0.930435852967E+02   -0.12572E-03   -0.12322E-03 10752   0.321E-03-0.327E-04
CGA:  29    -0.930436070495E+02   -0.21753E-04   -0.21174E-04 10752   0.514E-03-0.996E-05
CGA:  30    -0.930436550124E+02   -0.47963E-04   -0.47282E-04 10752   0.145E-03-0.299E-04
CGA:  31    -0.930436632674E+02   -0.82549E-05   -0.78661E-05 10752   0.177E-03-0.590E-05
CGA:  32    -0.930436792962E+02   -0.16029E-04   -0.15743E-04 10752   0.728E-04-0.134E-04
CGA:  33    -0.930436827899E+02   -0.34936E-05   -0.34021E-05 10752   0.543E-04-0.974E-06
CGA:  34    -0.930436866759E+02   -0.38860E-05   -0.39233E-05 10752   0.443E-04 0.143E-05
CGA:  35    -0.930436911562E+02   -0.44803E-05   -0.45084E-05 10752   0.386E-04 0.396E-05
CGA:  36    -0.930436925667E+02   -0.14106E-05   -0.14885E-05 10752   0.857E-05 0.141E-05
CGA:  37    -0.930436936067E+02   -0.10400E-05   -0.10405E-05 10752   0.205E-04 0.261E-06
CGA:  38    -0.930436949586E+02   -0.13519E-05   -0.13402E-05 10752   0.673E-05-0.386E-07
CGA:  39    -0.930436953145E+02   -0.35589E-06   -0.35729E-06 10752   0.426E-05 0.245E-06
   1 F= -.93043695E+02 E0= -.93039166E+02  d E =-.930437E+02  mag=    26.5218
       N       E                     dE             d eps       ncg     rms          ort
SDA:   1    -0.930428295841E+02    0.86537E-03    0.00000E+00 10752   0.114E-01 0.000E+00
CGA:   2    -0.930430840743E+02   -0.25449E-03   -0.25462E-03 10752   0.179E-02-0.726E-05
CGA:   3    -0.930434542163E+02   -0.37014E-03   -0.37063E-03 10752   0.126E-02-0.433E-05
CGA:   4    -0.930435915246E+02   -0.13731E-03   -0.13733E-03 10752   0.559E-03-0.251E-05
CGA:   5    -0.930436312164E+02   -0.39692E-04   -0.39688E-04 10752   0.886E-03-0.242E-06
CGA:   6    -0.930436755465E+02   -0.44330E-04   -0.44348E-04 10752   0.567E-04 0.404E-06
CGA:   7    -0.930436871799E+02   -0.11633E-04   -0.11460E-04 10752   0.533E-04 0.164E-05
CGA:   8    -0.930436902290E+02   -0.30491E-05   -0.30628E-05 10752   0.420E-04 0.312E-06
CGA:   9    -0.930436919690E+02   -0.17400E-05   -0.17440E-05 10752   0.141E-04 0.636E-07
CGA:  10    -0.930436942971E+02   -0.23281E-05   -0.23519E-05 10752   0.501E-05-0.331E-06
CGA:  11    -0.930436948899E+02   -0.59280E-06   -0.59597E-06 10752   0.732E-05-0.147E-06
   2 F= -.93043695E+02 E0= -.93039164E+02  d E =0.424636E-06  mag=    26.5232
       N       E                     dE             d eps       ncg     rms          ort
SDA:   1    -0.930430239380E+02    0.67036E-03    0.00000E+00 10752   0.231E-01 0.000E+00
CGA:   2    -0.930434831898E+02   -0.45925E-03   -0.45874E-03 10752   0.810E-03 0.225E-04
CGA:   3    -0.930435681368E+02   -0.84947E-04   -0.84949E-04 10752   0.539E-03-0.904E-07
CGA:   4    -0.930436541303E+02   -0.85994E-04   -0.85968E-04 10752   0.203E-03 0.373E-06
CGA:   5    -0.930436757821E+02   -0.21652E-04   -0.21652E-04 10752   0.236E-03-0.104E-06
CGA:   6    -0.930436843465E+02   -0.85644E-05   -0.85621E-05 10752   0.974E-04-0.888E-07
CGA:   7    -0.930436914007E+02   -0.70542E-05   -0.70541E-05 10752   0.131E-04-0.618E-07
CGA:   8    -0.930436946067E+02   -0.32060E-05   -0.32013E-05 10752   0.449E-05 0.328E-07
CGA:   9    -0.930436951533E+02   -0.54668E-06   -0.54526E-06 10752   0.102E-04 0.238E-07
   3 F= -.93043695E+02 E0= -.93039163E+02  d E =0.161206E-06  mag=    26.5233
       N       E                     dE             d eps       ncg     rms          ort
SDA:   1    -0.930430813541E+02    0.61325E-03    0.00000E+00 10752   0.287E-01 0.000E+00
CGA:   2    -0.930436374428E+02   -0.55609E-03   -0.55551E-03 10752   0.345E-03 0.257E-04
CGA:   3    -0.930436623200E+02   -0.24877E-04   -0.24876E-04 10752   0.113E-03-0.385E-07
CGA:   4    -0.930436845693E+02   -0.22249E-04   -0.22252E-04 10752   0.606E-04-0.279E-07
CGA:   5    -0.930436885165E+02   -0.39472E-05   -0.39472E-05 10752   0.752E-04 0.657E-08
CGA:   6    -0.930436921176E+02   -0.36010E-05   -0.36019E-05 10752   0.244E-04-0.680E-09
CGA:   7    -0.930436946780E+02   -0.25605E-05   -0.25607E-05 10752   0.369E-05-0.440E-07
CGA:   8    -0.930436953551E+02   -0.67704E-06   -0.67419E-06 10752   0.999E-05 0.266E-07
   4 F= -.93043695E+02 E0= -.93039163E+02  d E =-.405453E-07  mag=    26.5234
       N       E                     dE             d eps       ncg     rms          ort
SDA:   1    -0.930390120100E+02    0.46827E-02    0.00000E+00 10752   0.245E+00 0.000E+00
CGA:   2    -0.930436708218E+02   -0.46588E-02   -0.46737E-02 10752   0.123E-03-0.695E-03
CGA:   3    -0.930436826460E+02   -0.11824E-04   -0.11823E-04 10752   0.860E-04-0.820E-08
CGA:   4    -0.930436871370E+02   -0.44910E-05   -0.44912E-05 10752   0.824E-04-0.372E-07
CGA:   5    -0.930436918154E+02   -0.46784E-05   -0.46769E-05 10752   0.185E-04-0.137E-07
CGA:   6    -0.930436948547E+02   -0.30393E-05   -0.30316E-05 10752   0.844E-05 0.954E-07
CGA:   7    -0.930436954623E+02   -0.60759E-06   -0.60772E-06 10752   0.538E-05 0.182E-07
   5 F= -.93043695E+02 E0= -.93039163E+02  d E =-.147742E-06  mag=    26.5234
       N       E                     dE             d eps       ncg     rms          ort
SDA:   1    -0.930434103910E+02    0.28446E-03    0.00000E+00 10752   0.145E-01 0.000E+00
CGA:   2    -0.930436880373E+02   -0.27765E-03   -0.27748E-03 10752   0.722E-04 0.725E-05
CGA:   3    -0.930436929051E+02   -0.48679E-05   -0.48678E-05 10752   0.117E-04-0.120E-07
CGA:   4    -0.930436949539E+02   -0.20488E-05   -0.20632E-05 10752   0.733E-05-0.150E-06
CGA:   5    -0.930436953835E+02   -0.42953E-06   -0.42860E-06 10752   0.710E-05-0.816E-08
   6 F= -.93043695E+02 E0= -.93039163E+02  d E =-.689288E-07  mag=    26.5234
