       N       E                     dE             d eps       ncg     rms          rms(c)
DAV:   1     0.177626195012E+04    0.17763E+04   -0.85010E+04 43008   0.176E+03
DAV:   2     0.693225414706E+01   -0.17693E+04   -0.16770E+04 43008   0.477E+02
DAV:   3    -0.102022666183E+03   -0.10895E+03   -0.10707E+03 51200   0.126E+02
DAV:   4    -0.103692207930E+03   -0.16695E+01   -0.16691E+01 45600   0.156E+01
DAV:   5    -0.103727053279E+03   -0.34845E-01   -0.34845E-01 52608   0.218E+00    0.353E+01
DAV:   6    -0.102601308641E+03    0.11257E+01   -0.68235E+01 48480   0.533E+01    0.410E+01
DAV:   7    -0.947460822038E+02    0.78552E+01   -0.87323E+01 49248   0.380E+01    0.175E+01
DAV:   8    -0.951729191681E+02   -0.42684E+00   -0.10137E+01 52576   0.175E+01    0.199E+01
DAV:   9    -0.936641977559E+02    0.15087E+01   -0.12869E+01 52160   0.150E+01    0.116E+01
DAV:  10    -0.931410775504E+02    0.52312E+00   -0.24608E+00 51168   0.847E+00    0.611E+00
DAV:  11    -0.932971689541E+02   -0.15609E+00   -0.18432E+00 50784   0.828E+00    0.827E+00
DAV:  12    -0.930474564955E+02    0.24971E+00   -0.92622E-01 50528   0.593E+00    0.264E+00
DAV:  13    -0.930534772258E+02   -0.60207E-02   -0.11213E-01 50176   0.305E+00    0.246E+00
DAV:  14    -0.930378443750E+02    0.15633E-01   -0.85664E-02 49312   0.260E+00    0.114E+00
DAV:  15    -0.930362086729E+02    0.16357E-02   -0.11428E-02 51200   0.995E-01    0.320E-01
DAV:  16    -0.930364505204E+02   -0.24185E-03   -0.19203E-03 51168   0.228E-01    0.210E-01
DAV:  17    -0.930363276379E+02    0.12288E-03   -0.46449E-04 50016   0.138E-01    0.788E-02
DAV:  18    -0.930363562794E+02   -0.28641E-04   -0.18871E-04 52256   0.563E-02    0.511E-02
DAV:  19    -0.930363969075E+02   -0.40628E-04   -0.55819E-05 51488   0.333E-02    0.268E-02
DAV:  20    -0.930364062205E+02   -0.93130E-05   -0.14767E-05 50368   0.238E-02    0.400E-02
DAV:  21    -0.930364148432E+02   -0.86227E-05   -0.70884E-06 51008   0.280E-02    0.216E-02
DAV:  22    -0.930364289984E+02   -0.14155E-04   -0.27800E-05 38816   0.180E-02    0.187E-02
DAV:  23    -0.930364268746E+02    0.21238E-05   -0.12331E-05 34880   0.171E-02    0.213E-02
DAV:  24    -0.930364342211E+02   -0.73464E-05   -0.10830E-05 31904   0.118E-02    0.964E-03
DAV:  25    -0.930364369743E+02   -0.27532E-05   -0.35624E-07 26048   0.424E-03    0.829E-03
DAV:  26    -0.930364386251E+02   -0.16508E-05   -0.94479E-07 26144   0.301E-03    0.368E-03
DAV:  27    -0.930364391618E+02   -0.53665E-06   -0.79249E-07 24736   0.192E-03
   1 F= -.93036439E+02 E0= -.93036439E+02  d E =0.000000E+00  mag=    26.2721
