 vasp.6.4.3 19Mar24 (build Mar 26 2024 14:05:37) complex                        
  
 executed on             LinuxIFC date 2024.12.16  06:58:51
 running  128 mpi-ranks, on    1 nodes
 distrk:  each k-point on   32 cores,    4 groups
 distr:  one band on NCORE=   1 cores,   32 groups


--------------------------------------------------------------------------------------------------------


 INCAR:
   ALGO = Normal
   EDIFF = 1e-06
   EDIFFG = -0.01
   ENCUT = 520
   GGA = Pe
   IBRION = -1
   ISIF = 4
   ISMEAR = -5
   ISPIN = 2
   KPAR = 4
   LCHARG = True
   LORBIT = 11
   LREAL = False
   LWAVE = False
   MAGMOM = 1*2.871 1*2.869 1*2.871 1*2.873 2*2.87 1*2.871 1*2.869 1*2.871 3*0.302
   NELM = 200
   NSW = 0
   PREC = Accurate
   SIGMA = 0.2

 POTCAR:    PAW_PBE Fe_pv 02Aug2007               
 POTCAR:    PAW_PBE Pt 04Feb2005                  
 -----------------------------------------------------------------------------
|                                                                             |
|           W    W    AA    RRRRR   N    N  II  N    N   GGGG   !!!           |
|           W    W   A  A   R    R  NN   N  II  NN   N  G    G  !!!           |
|           W    W  A    A  R    R  N N  N  II  N N  N  G       !!!           |
|           W WW W  AAAAAA  RRRRR   N  N N  II  N  N N  G  GGG   !            |
|           WW  WW  A    A  R   R   N   NN  II  N   NN  G    G                |
|           W    W  A    A  R    R  N    N  II  N    N   GGGG   !!!           |
|                                                                             |
|     For optimal performance we recommend to set                             |
|       NCORE = 2 up to number-of-cores-per-socket                            |
|     NCORE specifies how many cores store one orbital (NPAR=cpu/NCORE).      |
|     This setting can greatly improve the performance of VASP for DFT.       |
|     The default, NCORE=1 might be grossly inefficient on modern             |
|     multi-core architectures or massively parallel machines. Do your        |
|     own testing! More info at https://www.vasp.at/wiki/index.php/NCORE      |
|     Unfortunately you need to use the default for GW and RPA                |
|     calculations (for HF NCORE is supported but not extensively tested      |
|     yet).                                                                   |
|                                                                             |
 -----------------------------------------------------------------------------

 POTCAR:    PAW_PBE Fe_pv 02Aug2007               
   SHA256 =  5d22e414b1f82158bf2c7ecb8b97b28fd0923e48cadc1c3bf74d524558f5dd32 Fe_pv/POTCAR          
   COPYR  = (c) Copyright 02Aug2007 Georg Kresse                                                    
   COPYR  = This file is part of the software VASP. Any use, copying, and all other rights are regul
   COPYR  = If you do not have a valid VASP license, you may not use, copy or distribute this file. 
   VRHFIN =Fe:  3pd7s1                                                                              
   LEXCH  = PE                                                                                      
   EATOM  =  2457.4239 eV,  180.6156 Ry                                                             
                                                                                                    
   TITEL  = PAW_PBE Fe_pv 02Aug2007                                                                 
   LULTRA =        F    use ultrasoft PP ?                                                          
   IUNSCR =        1    unscreen: 0-lin 1-nonlin 2-no                                               
   RPACOR =    1.750    partial core radius                                                         
   POMASS =   55.847; ZVAL   =   14.000    mass and valenz                                          
   RCORE  =    2.200    outmost cutoff radius                                                       
   RWIGS  =    2.200; RWIGS  =    1.164    wigner-seitz radius (au A)                               
   ENMAX  =  293.238; ENMIN  =  219.928 eV                                                          
   ICORE  =        3    local potential                                                             
   LCOR   =        T    correct aug charges                                                         
   LPAW   =        T    paw PP                                                                      
   EAUG   =  578.342                                                                                
   DEXC   =    0.000                                                                                
   RMAX   =    2.249    core radius for proj-oper                                                   
   RAUG   =    1.300    factor for augmentation sphere                                              
   RDEP   =    2.296    radius for radial grids                                                     
   RDEPT  =    1.766    core radius for aug-charge                                                  
                                                                                                    
   Atomic configuration                                                                             
    8 entries                                                                                       
     n  l   j            E        occ.                                                              
     1  0  0.50     -6993.8440   2.0000                                                             
     2  0  0.50      -814.6047   2.0000                                                             
     2  1  1.50      -693.3689   6.0000                                                             
     3  0  0.50       -89.4732   2.0000                                                             
     3  1  1.50       -55.6373   6.0000                                                             
     3  2  2.50        -3.8151   7.0000                                                             
     4  0  0.50        -4.2551   1.0000                                                             
     4  3  2.50        -1.3606   0.0000                                                             
   Description                                                                                      
     l       E           TYP  RCUT    TYP  RCUT                                                     
     1    -55.6372668     23  2.000                                                                 
     1     -5.4423304     23  2.000                                                                 
     2     -3.8151096     23  2.200                                                                 
     2     -5.1756922     23  2.200                                                                 
     0     -4.2550951     23  2.200                                                                 
     0     27.2116520     23  2.200                                                                 
     3     -1.3605826     23  2.200                                                                 
  local pseudopotential read in
  partial core-charges read in
  partial kinetic energy density read in
  atomic valenz-charges read in
  non local Contribution for L=           1  read in
    real space projection operators read in
  non local Contribution for L=           1  read in
    real space projection operators read in
  non local Contribution for L=           2  read in
    real space projection operators read in
  non local Contribution for L=           2  read in
    real space projection operators read in
  non local Contribution for L=           0  read in
    real space projection operators read in
  non local Contribution for L=           0  read in
    real space projection operators read in
    PAW grid and wavefunctions read in
 
   number of l-projection  operators is LMAX  =           6
   number of lm-projection operators is LMMAX =          18
 
 POTCAR:    PAW_PBE Pt 04Feb2005                  
   SHA256 =  3ed90460adef76debcff1cfb73ee1349b515b1a3db03439735b44de3a8db7dc8 Pt/POTCAR             
   COPYR  = (c) Copyright 04Feb2005 Georg Kresse                                                    
   COPYR  = This file is part of the software VASP. Any use, copying, and all other rights are regul
   COPYR  = If you do not have a valid VASP license, you may not use, copy or distribute this file. 
   VRHFIN =Pt: s1d9                                                                                 
   LEXCH  = PE                                                                                      
   EATOM  =   729.1176 eV,   53.5886 Ry                                                             
                                                                                                    
   TITEL  = PAW_PBE Pt 04Feb2005                                                                    
   LULTRA =        F    use ultrasoft PP ?                                                          
   IUNSCR =        1    unscreen: 0-lin 1-nonlin 2-no                                               
   RPACOR =    2.330    partial core radius                                                         
   POMASS =  195.080; ZVAL   =   10.000    mass and valenz                                          
   RCORE  =    2.600    outmost cutoff radius                                                       
   RWIGS  =    2.750; RWIGS  =    1.455    wigner-seitz radius (au A)                               
   ENMAX  =  230.283; ENMIN  =  172.712 eV                                                          
   ICORE  =        3    local potential                                                             
   LCOR   =        T    correct aug charges                                                         
   LPAW   =        T    paw PP                                                                      
   EAUG   =  358.966                                                                                
   DEXC   =    0.000                                                                                
   RMAX   =    2.658    core radius for proj-oper                                                   
   RAUG   =    1.300    factor for augmentation sphere                                              
   RDEP   =    2.761    radius for radial grids                                                     
   RDEPT  =    2.203    core radius for aug-charge                                                  
                                                                                                    
   Atomic configuration                                                                             
   16 entries                                                                                       
     n  l   j            E        occ.                                                              
     1  0  0.50    -78401.1885   2.0000                                                             
     2  0  0.50    -13770.7750   2.0000                                                             
     2  1  1.50    -11931.0468   6.0000                                                             
     3  0  0.50     -3234.7234   2.0000                                                             
     3  1  1.50     -2699.2216   6.0000                                                             
     3  2  2.50     -2119.5714  10.0000                                                             
     4  0  0.50      -695.1528   2.0000                                                             
     4  1  1.50      -519.6034   6.0000                                                             
     4  2  2.50      -306.6786  10.0000                                                             
     4  3  3.50       -70.1041  14.0000                                                             
     5  0  0.50      -101.7747   2.0000                                                             
     5  1  1.50       -55.9873   6.0000                                                             
     5  2  2.50        -6.1423   9.0000                                                             
     6  0  0.50        -5.6573   1.0000                                                             
     6  1  1.50        -6.8029   0.0000                                                             
     5  3  2.50        -1.3606   0.0000                                                             
   Description                                                                                      
     l       E           TYP  RCUT    TYP  RCUT                                                     
     2     -6.1423404     23  2.500                                                                 
     2     -7.5029230     23  2.500                                                                 
     0     -5.6573207     23  2.500                                                                 
     0      0.7416693     23  2.500                                                                 
     1     -2.7211652     23  2.600                                                                 
     1     20.4087390     23  2.600                                                                 
     3     -1.3605826     23  2.500                                                                 
  local pseudopotential read in
  partial core-charges read in
  partial kinetic energy density read in
  atomic valenz-charges read in
  non local Contribution for L=           2  read in
    real space projection operators read in
  non local Contribution for L=           2  read in
    real space projection operators read in
  non local Contribution for L=           0  read in
    real space projection operators read in
  non local Contribution for L=           0  read in
    real space projection operators read in
  non local Contribution for L=           1  read in
    real space projection operators read in
  non local Contribution for L=           1  read in
    real space projection operators read in
    PAW grid and wavefunctions read in
 
   number of l-projection  operators is LMAX  =           6
   number of lm-projection operators is LMMAX =          18
 
  PAW_PBE Fe_pv 02Aug2007               :
 energy of atom  1       EATOM=-2457.4239
 kinetic energy error for atom=    0.0062 (will be added to EATOM!!)
  PAW_PBE Pt 04Feb2005                  :
 energy of atom  2       EATOM= -729.1176
 kinetic energy error for atom=    0.0032 (will be added to EATOM!!)
 
 
 POSCAR: Fe9 Pt3
  positions in direct lattice
  velocities in cartesian coordinates


 exchange-correlation table for PE
   RHO(1)=    0.500       N(1)  =     2000
   RHO(2)=  100.500       N(2)  =     4000
 


--------------------------------------------------------------------------------------------------------


 ion  position               nearest neighbor table
   1  0.000  0.500  0.167-   7 2.71   7 2.71   7 2.71   7 2.71  11 2.71  11 2.71   5 2.71   5 2.71
                             4 2.71  10 2.71  10 2.71   4 2.71
   2  0.000  0.500  0.500-   5 2.71   6 2.71   5 2.71   6 2.71  11 2.71  12 2.71  11 2.71  12 2.71
                             8 2.71   8 2.71   8 2.71   8 2.71
   3  0.000  0.500  0.833-   9 2.71   9 2.71   9 2.71   9 2.71  12 2.71  12 2.71   6 2.71   6 2.71
                             4 2.71  10 2.71  10 2.71   4 2.71
   4  0.500  0.500  0.000-  10 2.71  10 2.71  10 2.71  10 2.71   1 2.71   7 2.71   9 2.71   3 2.71
                             1 2.71   3 2.71   7 2.71   9 2.71
   5  0.500  0.500  0.333-   2 2.71   8 2.71   8 2.71   2 2.71  11 2.71  11 2.71  11 2.71  11 2.71
                             1 2.71   7 2.71   1 2.71   7 2.71
   6  0.500  0.500  0.667-   2 2.71   8 2.71   8 2.71   2 2.71  12 2.71  12 2.71  12 2.71  12 2.71
                             9 2.71   3 2.71   9 2.71   3 2.71
   7  0.500  0.000  0.167-   1 2.71   1 2.71   1 2.71   1 2.71  11 2.71  11 2.71   5 2.71   5 2.71
                            10 2.71  10 2.71   4 2.71   4 2.71
   8  0.500  0.000  0.500-   5 2.71   6 2.71   5 2.71   6 2.71  11 2.71  12 2.71  11 2.71  12 2.71
                             2 2.71   2 2.71   2 2.71   2 2.71
   9  0.500  0.000  0.833-   3 2.71   3 2.71   3 2.71   3 2.71  12 2.71  12 2.71   6 2.71   6 2.71
                            10 2.71  10 2.71   4 2.71   4 2.71
  10  0.000  0.000  0.000-   4 2.71   4 2.71   4 2.71   4 2.71   9 2.71   1 2.71   3 2.71   3 2.71
                             1 2.71   7 2.71   9 2.71   7 2.71
  11  0.000  0.000  0.333-   2 2.71   8 2.71   2 2.71   8 2.71   5 2.71   5 2.71   5 2.71   5 2.71
                             1 2.71   7 2.71   7 2.71   1 2.71
  12  0.000  0.000  0.667-   2 2.71   8 2.71   2 2.71   8 2.71   6 2.71   6 2.71   6 2.71   6 2.71
                             3 2.71   3 2.71   9 2.71   9 2.71
 
  LATTYP: Found a simple tetragonal cell.
 ALAT       =     3.8329983063
 C/A-ratio  =     3.0010333560
  
  Lattice vectors:
  
 A1 = (   3.8329983063,   0.0000000000,   0.0000000000)
 A2 = (   0.0000000000,   3.8329983063,   0.0000000000)
 A3 = (   0.0000000000,   0.0000000000,  11.5029557705)


Analysis of symmetry for initial positions (statically):
=====================================================================
 Subroutine PRICEL returns:
 Original cell was already a primitive cell.
 

 Routine SETGRP: Setting up the symmetry group for a 
 simple tetragonal supercell.


 Subroutine GETGRP returns: Found 16 space group operations
 (whereof 16 operations were pure point group operations)
 out of a pool of 16 trial point group operations.


The static configuration has the point symmetry D_4h.


Analysis of symmetry for dynamics (positions and initial velocities):
=====================================================================
 Subroutine PRICEL returns:
 Original cell was already a primitive cell.
 

 Routine SETGRP: Setting up the symmetry group for a 
 simple tetragonal supercell.


 Subroutine GETGRP returns: Found 16 space group operations
 (whereof 16 operations were pure point group operations)
 out of a pool of 16 trial point group operations.


The dynamic configuration has the point symmetry D_4h.


Analysis of structural, dynamic, and magnetic symmetry:
=====================================================================
 Subroutine PRICEL returns:
 Original cell was already a primitive cell.
 

 Routine SETGRP: Setting up the symmetry group for a 
 simple tetragonal supercell.


 Subroutine GETGRP returns: Found 16 space group operations
 (whereof 16 operations were pure point group operations)
 out of a pool of 16 trial point group operations.


The overall configuration has the point symmetry D_4h.


 Subroutine INISYM returns: Found 16 space group operations
 (whereof 16 operations are pure point group operations),
 and found     1 'primitive' translations


----------------------------------------------------------------------------------------

                                     Primitive cell                                     

  volume of cell :     169.0000

  direct lattice vectors                    reciprocal lattice vectors
     3.832998306  0.000000000  0.000000000     0.260892367  0.000000000  0.000000000
     0.000000000  3.832998306  0.000000000     0.000000000  0.260892367  0.000000000
     0.000000000  0.000000000 11.502955771     0.000000000  0.000000000  0.086934178

  length of vectors
     3.832998306  3.832998306 11.502955771     0.260892367  0.260892367  0.086934178

  position of ions in fractional coordinates (direct lattice)
     0.000000000  0.500000000  0.166760483
     0.000000000  0.500000000  0.500000000
     0.000000000  0.500000000  0.833239517
     0.500000000  0.500000000  0.000000000
     0.500000000  0.500000000  0.333449118
     0.500000000  0.500000000  0.666550882
     0.500000000  0.000000000  0.166760483
     0.500000000  0.000000000  0.500000000
     0.500000000  0.000000000  0.833239517
     0.000000000  0.000000000  0.000000000
     0.000000000  0.000000000  0.333395313
     0.000000000  0.000000000  0.666604687

  ion indices of the primitive-cell ions
   primitive index   ion index
                 1           1
                 2           2
                 3           3
                 4           4
                 5           5
                 6           6
                 7           7
                 8           8
                 9           9
                10          10
                11          11
                12          12

----------------------------------------------------------------------------------------

 
 
 KPOINTS: pymatgen with grid density = 8800 / numb

Automatic generation of k-mesh.
 Grid dimensions read from file:
 generate k-points for:   13   13    4

 Generating k-lattice:

  Cartesian coordinates                     Fractional coordinates (reciprocal lattice)
     0.020068644  0.000000000  0.000000000     0.076923077  0.000000000  0.000000000
     0.000000000  0.020068644  0.000000000     0.000000000  0.076923077  0.000000000
     0.000000000  0.000000000  0.021733544     0.000000000  0.000000000  0.250000000

  Length of vectors
     0.020068644  0.020068644  0.021733544

  Shift w.r.t. Gamma in fractional coordinates (k-lattice)
     0.000000000  0.000000000  0.000000000

 TETIRR: Found   1010 inequivalent tetrahedra from     4056
 
 Subroutine IBZKPT returns following result:
 ===========================================
 
 Found     84 irreducible k-points:
 
 Following reciprocal coordinates:
            Coordinates               Weight
  0.000000  0.000000  0.000000      1.000000
  0.076923  0.000000  0.000000      4.000000
  0.153846  0.000000  0.000000      4.000000
  0.230769  0.000000  0.000000      4.000000
  0.307692  0.000000  0.000000      4.000000
  0.384615  0.000000  0.000000      4.000000
  0.461538  0.000000  0.000000      4.000000
  0.076923  0.076923  0.000000      4.000000
  0.153846  0.076923  0.000000      8.000000
  0.230769  0.076923  0.000000      8.000000
  0.307692  0.076923  0.000000      8.000000
  0.384615  0.076923  0.000000      8.000000
  0.461538  0.076923  0.000000      8.000000
  0.153846  0.153846  0.000000      4.000000
  0.230769  0.153846  0.000000      8.000000
  0.307692  0.153846  0.000000      8.000000
  0.384615  0.153846  0.000000      8.000000
  0.461538  0.153846  0.000000      8.000000
  0.230769  0.230769  0.000000      4.000000
  0.307692  0.230769  0.000000      8.000000
  0.384615  0.230769  0.000000      8.000000
  0.461538  0.230769  0.000000      8.000000
  0.307692  0.307692  0.000000      4.000000
  0.384615  0.307692  0.000000      8.000000
  0.461538  0.307692  0.000000      8.000000
  0.384615  0.384615  0.000000      4.000000
  0.461538  0.384615  0.000000      8.000000
  0.461538  0.461538  0.000000      4.000000
  0.000000  0.000000  0.250000      2.000000
  0.076923  0.000000  0.250000      8.000000
  0.153846  0.000000  0.250000      8.000000
  0.230769  0.000000  0.250000      8.000000
  0.307692  0.000000  0.250000      8.000000
  0.384615  0.000000  0.250000      8.000000
  0.461538  0.000000  0.250000      8.000000
  0.076923  0.076923  0.250000      8.000000
  0.153846  0.076923  0.250000     16.000000
  0.230769  0.076923  0.250000     16.000000
  0.307692  0.076923  0.250000     16.000000
  0.384615  0.076923  0.250000     16.000000
  0.461538  0.076923  0.250000     16.000000
  0.153846  0.153846  0.250000      8.000000
  0.230769  0.153846  0.250000     16.000000
  0.307692  0.153846  0.250000     16.000000
  0.384615  0.153846  0.250000     16.000000
  0.461538  0.153846  0.250000     16.000000
  0.230769  0.230769  0.250000      8.000000
  0.307692  0.230769  0.250000     16.000000
  0.384615  0.230769  0.250000     16.000000
  0.461538  0.230769  0.250000     16.000000
  0.307692  0.307692  0.250000      8.000000
  0.384615  0.307692  0.250000     16.000000
  0.461538  0.307692  0.250000     16.000000
  0.384615  0.384615  0.250000      8.000000
  0.461538  0.384615  0.250000     16.000000
  0.461538  0.461538  0.250000      8.000000
  0.000000  0.000000  0.500000      1.000000
  0.076923  0.000000  0.500000      4.000000
  0.153846  0.000000  0.500000      4.000000
  0.230769  0.000000  0.500000      4.000000
  0.307692  0.000000  0.500000      4.000000
  0.384615  0.000000  0.500000      4.000000
  0.461538  0.000000  0.500000      4.000000
  0.076923  0.076923  0.500000      4.000000
  0.153846  0.076923  0.500000      8.000000
  0.230769  0.076923  0.500000      8.000000
  0.307692  0.076923  0.500000      8.000000
  0.384615  0.076923  0.500000      8.000000
  0.461538  0.076923  0.500000      8.000000
  0.153846  0.153846  0.500000      4.000000
  0.230769  0.153846  0.500000      8.000000
  0.307692  0.153846  0.500000      8.000000
  0.384615  0.153846  0.500000      8.000000
  0.461538  0.153846  0.500000      8.000000
  0.230769  0.230769  0.500000      4.000000
  0.307692  0.230769  0.500000      8.000000
  0.384615  0.230769  0.500000      8.000000
  0.461538  0.230769  0.500000      8.000000
  0.307692  0.307692  0.500000      4.000000
  0.384615  0.307692  0.500000      8.000000
  0.461538  0.307692  0.500000      8.000000
  0.384615  0.384615  0.500000      4.000000
  0.461538  0.384615  0.500000      8.000000
  0.461538  0.461538  0.500000      4.000000
 
 Following cartesian coordinates:
            Coordinates               Weight
  0.000000  0.000000  0.000000      1.000000
  0.020069  0.000000  0.000000      4.000000
  0.040137  0.000000  0.000000      4.000000
  0.060206  0.000000  0.000000      4.000000
  0.080275  0.000000  0.000000      4.000000
  0.100343  0.000000  0.000000      4.000000
  0.120412  0.000000  0.000000      4.000000
  0.020069  0.020069  0.000000      4.000000
  0.040137  0.020069  0.000000      8.000000
  0.060206  0.020069  0.000000      8.000000
  0.080275  0.020069  0.000000      8.000000
  0.100343  0.020069  0.000000      8.000000
  0.120412  0.020069  0.000000      8.000000
  0.040137  0.040137  0.000000      4.000000
  0.060206  0.040137  0.000000      8.000000
  0.080275  0.040137  0.000000      8.000000
  0.100343  0.040137  0.000000      8.000000
  0.120412  0.040137  0.000000      8.000000
  0.060206  0.060206  0.000000      4.000000
  0.080275  0.060206  0.000000      8.000000
  0.100343  0.060206  0.000000      8.000000
  0.120412  0.060206  0.000000      8.000000
  0.080275  0.080275  0.000000      4.000000
  0.100343  0.080275  0.000000      8.000000
  0.120412  0.080275  0.000000      8.000000
  0.100343  0.100343  0.000000      4.000000
  0.120412  0.100343  0.000000      8.000000
  0.120412  0.120412  0.000000      4.000000
  0.000000  0.000000  0.021734      2.000000
  0.020069  0.000000  0.021734      8.000000
  0.040137  0.000000  0.021734      8.000000
  0.060206  0.000000  0.021734      8.000000
  0.080275  0.000000  0.021734      8.000000
  0.100343  0.000000  0.021734      8.000000
  0.120412  0.000000  0.021734      8.000000
  0.020069  0.020069  0.021734      8.000000
  0.040137  0.020069  0.021734     16.000000
  0.060206  0.020069  0.021734     16.000000
  0.080275  0.020069  0.021734     16.000000
  0.100343  0.020069  0.021734     16.000000
  0.120412  0.020069  0.021734     16.000000
  0.040137  0.040137  0.021734      8.000000
  0.060206  0.040137  0.021734     16.000000
  0.080275  0.040137  0.021734     16.000000
  0.100343  0.040137  0.021734     16.000000
  0.120412  0.040137  0.021734     16.000000
  0.060206  0.060206  0.021734      8.000000
  0.080275  0.060206  0.021734     16.000000
  0.100343  0.060206  0.021734     16.000000
  0.120412  0.060206  0.021734     16.000000
  0.080275  0.080275  0.021734      8.000000
  0.100343  0.080275  0.021734     16.000000
  0.120412  0.080275  0.021734     16.000000
  0.100343  0.100343  0.021734      8.000000
  0.120412  0.100343  0.021734     16.000000
  0.120412  0.120412  0.021734      8.000000
  0.000000  0.000000  0.043467      1.000000
  0.020069  0.000000  0.043467      4.000000
  0.040137  0.000000  0.043467      4.000000
  0.060206  0.000000  0.043467      4.000000
  0.080275  0.000000  0.043467      4.000000
  0.100343  0.000000  0.043467      4.000000
  0.120412  0.000000  0.043467      4.000000
  0.020069  0.020069  0.043467      4.000000
  0.040137  0.020069  0.043467      8.000000
  0.060206  0.020069  0.043467      8.000000
  0.080275  0.020069  0.043467      8.000000
  0.100343  0.020069  0.043467      8.000000
  0.120412  0.020069  0.043467      8.000000
  0.040137  0.040137  0.043467      4.000000
  0.060206  0.040137  0.043467      8.000000
  0.080275  0.040137  0.043467      8.000000
  0.100343  0.040137  0.043467      8.000000
  0.120412  0.040137  0.043467      8.000000
  0.060206  0.060206  0.043467      4.000000
  0.080275  0.060206  0.043467      8.000000
  0.100343  0.060206  0.043467      8.000000
  0.120412  0.060206  0.043467      8.000000
  0.080275  0.080275  0.043467      4.000000
  0.100343  0.080275  0.043467      8.000000
  0.120412  0.080275  0.043467      8.000000
  0.100343  0.100343  0.043467      4.000000
  0.120412  0.100343  0.043467      8.000000
  0.120412  0.120412  0.043467      4.000000
 


--------------------------------------------------------------------------------------------------------




 Dimension of arrays:
   k-points           NKPTS =     84   k-points in BZ     NKDIM =     84   number of bands    NBANDS=    128
   number of dos      NEDOS =    301   number of ions     NIONS =     12
   non local maximal  LDIM  =      6   non local SUM 2l+1 LMDIM =     18
   total plane-waves  NPLWV =  81000
   max r-space proj   IRMAX =      1   max aug-charges    IRDMAX=  29225
   dimension x,y,z NGX =    30 NGY =   30 NGZ =   90
   dimension x,y,z NGXF=    60 NGYF=   60 NGZF=  180
   support grid    NGXF=    60 NGYF=   60 NGZF=  180
   ions per type =               9   3
   NGX,Y,Z   is equivalent  to a cutoff of  13.01, 13.01, 13.01 a.u.
   NGXF,Y,Z  is equivalent  to a cutoff of  26.02, 26.02, 26.01 a.u.

 SYSTEM =  unknown system                          
 POSCAR =  Fe9 Pt3                                 

 Startparameter for this run:
   NWRITE =      2    write-flag & timer
   PREC   = accura    normal or accurate (medium, high low for compatibility)
   ISTART =      0    job   : 0-new  1-cont  2-samecut
   ICHARG =      2    charge: 1-file 2-atom 10-const
   ISPIN  =      2    spin polarized calculation?
   LNONCOLLINEAR =      F non collinear calculations
   LSORBIT =      F    spin-orbit coupling
   INIWAV =      1    electr: 0-lowe 1-rand  2-diag
   LASPH  =      F    aspherical Exc in radial PAW
 Electronic Relaxation 1
   ENCUT  =  520.0 eV  38.22 Ry    6.18 a.u.   7.13  7.13 21.39*2*pi/ulx,y,z
   ENINI  =  520.0     initial cutoff
   ENAUG  =  578.3 eV  augmentation charge cutoff
   NELM   =    200;   NELMIN=  2; NELMDL=  0     # of ELM steps 
   EDIFF  = 0.1E-05   stopping-criterion for ELM
   LREAL  =      F    real-space projection
   NLSPLINE    = F    spline interpolate recip. space projectors
   LCOMPAT=      F    compatible to vasp.4.4
   GGA_COMPAT  = T    GGA compatible to vasp.4.4-vasp.4.6
   LMAXPAW     = -100 max onsite density
   LMAXMIX     =    2 max onsite mixed and CHGCAR
   VOSKOWN=      0    Vosko Wilk Nusair interpolation
   ROPT   =    0.00000   0.00000
 Ionic relaxation
   EDIFFG = -.1E-01   stopping-criterion for IOM
   NSW    =      0    number of steps for IOM
   NBLOCK =      1;   KBLOCK =      1    inner block; outer block 
   IBRION =     -1    ionic relax: 0-MD 1-quasi-New 2-CG
   NFREE  =      0    steps in history (QN), initial steepest desc. (CG)
   ISIF   =      4    stress and relaxation
   IWAVPR =     10    prediction:  0-non 1-charg 2-wave 3-comb
   ISYM   =      2    0-nonsym 1-usesym 2-fastsym
   LCORR  =      T    Harris-Foulkes like correction to forces

   POTIM  = 0.5000    time-step for ionic-motion
   TEIN   =    0.0    initial temperature
   TEBEG  =    0.0;   TEEND  =   0.0 temperature during run
   SMASS  =  -3.00    Nose mass-parameter (am)
   estimated Nose-frequenzy (Omega)   =  0.10E-29 period in steps = 0.13E+47 mass=  -0.336E-27a.u.
   SCALEE = 1.0000    scale energy and forces
   NPACO  =    256;   APACO  = 10.0  distance and # of slots for P.C.
   PSTRESS=    0.0 pullay stress

  Mass of Ions in am
   POMASS =  55.85195.08
  Ionic Valenz
   ZVAL   =  14.00 10.00
  Atomic Wigner-Seitz radii
   RWIGS  =  -1.00 -1.00
  virtual crystal weights 
   VCA    =   1.00  1.00
   NELECT =     156.0000    total number of electrons
   NUPDOWN=      -1.0000    fix difference up-down

 DOS related values:
   EMIN   =  10.00;   EMAX   =-10.00  energy-range for DOS
   EFERMI =   0.00;   METHOD = LEGACY      
   ISMEAR =    -5;   SIGMA  =   0.20  broadening in eV -4-tet -1-fermi 0-gaus

 Electronic relaxation 2 (details)
   IALGO  =     38    algorithm
   LDIAG  =      T    sub-space diagonalisation (order eigenvalues)
   LSUBROT=      F    optimize rotation matrix (better conditioning)
   TURBO    =      0    0=normal 1=particle mesh
   IRESTART =      0    0=no restart 2=restart with 2 vectors
   NREBOOT  =      0    no. of reboots
   NMIN     =      0    reboot dimension
   EREF     =   0.00    reference energy to select bands
   IMIX   =      4    mixing-type and parameters
     AMIX     =   0.40;   BMIX     =  1.00
     AMIX_MAG =   1.60;   BMIX_MAG =  1.00
     AMIN     =   0.10
     WC   =   100.;   INIMIX=   1;  MIXPRE=   1;  MAXMIX= -45

 Intra band minimization:
   WEIMIN = 0.0000     energy-eigenvalue tresh-hold
   EBREAK =  0.20E-08  absolut break condition
   DEPER  =   0.30     relativ break condition  

   TIME   =   0.40     timestep for ELM

  volume/ion in A,a.u.               =      14.08        95.04
  Fermi-wavevector in a.u.,A,eV,Ry     =   1.593997  3.012217 34.570036  2.540826
  Thomas-Fermi vector in A             =   2.692140
 
 Write flags
   LWAVE        =      F    write WAVECAR
   LDOWNSAMPLE  =      F    k-point downsampling of WAVECAR
   LCHARG       =      T    write CHGCAR
   LVTOT        =      F    write LOCPOT, total local potential
   LVHAR        =      F    write LOCPOT, Hartree potential only
   WRT_POTENTIAL= false  ! write potential to hdf5 file
   LELF         =      F    write electronic localiz. function (ELF)
   LORBIT       =     11    0 simple, 1 ext, 2 COOP (PROOUT), +10 PAW based schemes


 Dipole corrections
   LMONO      =      F    monopole corrections only (constant potential shift)
   LDIPOL     =      F    correct potential (dipole corrections)
   IDIPOL     =      0    1-x, 2-y, 3-z, 4-all directions 
   EPSILON    =  1.0000000 bulk dielectric constant
   LVACPOTAV  =      F  vacuum potentials using an averaging scheme for the charge density
   VACPOTFLAT =  0.1000000 required flatness to determine vacuum potential
 Exchange correlation treatment:
   GGA     = PE    functional components
   XC_C    = 1    coefficients multiplying the functional components
   LIBXC   =     F    Libxc                    
   VOSKOWN =     0    Vosko Wilk Nusair interpolation
   LHFCALC =     F    Hartree Fock is set to
   LHFONE  =     F    Hartree Fock one center treatment
   AEXX    =    0.0000 exact exchange contribution

 Parameters of functionals:
   PE:
     No parameter
 
 Van der Waals corrections
   IVDW    =     0    specifies the selected vdW correction

 Linear response parameters
   LEPSILON=     F    determine dielectric tensor
   LRPA    =     F    only Hartree local field effects (RPA)
   LNABLA  =     F    use nabla operator in PAW spheres
   LVEL    =     F    velocity operator in full k-point grid
   CSHIFT  =0.1000    complex shift for real part using Kramers Kronig
   OMEGAMAX=  -1.0    maximum frequency
   DEG_THRESHOLD= 0.2000000E-02 threshold for treating states as degnerate
   RTIME   =   -0.100 relaxation time in fs
  (WPLASMAI=    0.000 imaginary part of plasma frequency in eV, 0.658/RTIME)
   DFIELD  = 0.0000000 0.0000000 0.0000000 field for delta impulse in time
 
  Optional k-point grid parameters
   LKPOINTS_OPT  =     F    use optional k-point grid
   KPOINTS_OPT_MODE=     1    mode for optional k-point grid
 
 Orbital magnetization related:
   ORBITALMAG=     F  switch on orbital magnetization
   LCHIMAG   =     F  perturbation theory with respect to B field
   DQ        =  0.001000  dq finite difference perturbation B field
   LLRAUG    =     F  two centre corrections for induced B field
   LBONE     =     F  B-component reconstruction in AE one-centre
   LVGVCALC  =     T  calculate vGv susceptibility
   LVGVAPPL  =     F  apply vGv susceptibility instead of pGv for G=0

 Random number generation:
   RANDOM_GENERATOR = DEFAULT
   PCG_SEED         = not used


--------------------------------------------------------------------------------------------------------


 Static calculation
 charge density and potential will be updated during run
 spin polarized calculation
 Variant of blocked Davidson
 Davidson routine will perform the subspace rotation
 perform sub-space diagonalisation
    after iterative eigenvector-optimisation
 modified Broyden-mixing scheme, WC =      100.0
 initial mixing is a Kerker type mixing with AMIX =  0.4000 and BMIX =      1.0000
 Hartree-type preconditioning will be used
 using additional bands           50
 reciprocal scheme for non local part
 use partial core corrections
 calculate Harris-corrections to forces 
   (improved forces if not selfconsistent)
 use gradient corrections 
 use of overlap-Matrix (Vanderbilt PP)
 Fermi weights with tetrahedron method with Bloechl corrections


--------------------------------------------------------------------------------------------------------


  energy-cutoff  :      520.00
  volume of cell :      169.00
      direct lattice vectors                 reciprocal lattice vectors
     3.832998306  0.000000000  0.000000000     0.260892367  0.000000000  0.000000000
     0.000000000  3.832998306  0.000000000     0.000000000  0.260892367  0.000000000
     0.000000000  0.000000000 11.502955771     0.000000000  0.000000000  0.086934178

  length of vectors
     3.832998306  3.832998306 11.502955771     0.260892367  0.260892367  0.086934178


 
 k-points in units of 2pi/SCALE and weight: pymatgen with grid density = 8800 / numb
   0.00000000  0.00000000  0.00000000       0.001
   0.02006864  0.00000000  0.00000000       0.006
   0.04013729  0.00000000  0.00000000       0.006
   0.06020593  0.00000000  0.00000000       0.006
   0.08027457  0.00000000  0.00000000       0.006
   0.10034322  0.00000000  0.00000000       0.006
   0.12041186  0.00000000  0.00000000       0.006
   0.02006864  0.02006864  0.00000000       0.006
   0.04013729  0.02006864  0.00000000       0.012
   0.06020593  0.02006864  0.00000000       0.012
   0.08027457  0.02006864  0.00000000       0.012
   0.10034322  0.02006864  0.00000000       0.012
   0.12041186  0.02006864  0.00000000       0.012
   0.04013729  0.04013729  0.00000000       0.006
   0.06020593  0.04013729  0.00000000       0.012
   0.08027457  0.04013729  0.00000000       0.012
   0.10034322  0.04013729  0.00000000       0.012
   0.12041186  0.04013729  0.00000000       0.012
   0.06020593  0.06020593  0.00000000       0.006
   0.08027457  0.06020593  0.00000000       0.012
   0.10034322  0.06020593  0.00000000       0.012
   0.12041186  0.06020593  0.00000000       0.012
   0.08027457  0.08027457  0.00000000       0.006
   0.10034322  0.08027457  0.00000000       0.012
   0.12041186  0.08027457  0.00000000       0.012
   0.10034322  0.10034322  0.00000000       0.006
   0.12041186  0.10034322  0.00000000       0.012
   0.12041186  0.12041186  0.00000000       0.006
   0.00000000  0.00000000  0.02173354       0.003
   0.02006864  0.00000000  0.02173354       0.012
   0.04013729  0.00000000  0.02173354       0.012
   0.06020593  0.00000000  0.02173354       0.012
   0.08027457  0.00000000  0.02173354       0.012
   0.10034322  0.00000000  0.02173354       0.012
   0.12041186  0.00000000  0.02173354       0.012
   0.02006864  0.02006864  0.02173354       0.012
   0.04013729  0.02006864  0.02173354       0.024
   0.06020593  0.02006864  0.02173354       0.024
   0.08027457  0.02006864  0.02173354       0.024
   0.10034322  0.02006864  0.02173354       0.024
   0.12041186  0.02006864  0.02173354       0.024
   0.04013729  0.04013729  0.02173354       0.012
   0.06020593  0.04013729  0.02173354       0.024
   0.08027457  0.04013729  0.02173354       0.024
   0.10034322  0.04013729  0.02173354       0.024
   0.12041186  0.04013729  0.02173354       0.024
   0.06020593  0.06020593  0.02173354       0.012
   0.08027457  0.06020593  0.02173354       0.024
   0.10034322  0.06020593  0.02173354       0.024
   0.12041186  0.06020593  0.02173354       0.024
   0.08027457  0.08027457  0.02173354       0.012
   0.10034322  0.08027457  0.02173354       0.024
   0.12041186  0.08027457  0.02173354       0.024
   0.10034322  0.10034322  0.02173354       0.012
   0.12041186  0.10034322  0.02173354       0.024
   0.12041186  0.12041186  0.02173354       0.012
   0.00000000  0.00000000  0.04346709       0.001
   0.02006864  0.00000000  0.04346709       0.006
   0.04013729  0.00000000  0.04346709       0.006
   0.06020593  0.00000000  0.04346709       0.006
   0.08027457  0.00000000  0.04346709       0.006
   0.10034322  0.00000000  0.04346709       0.006
   0.12041186  0.00000000  0.04346709       0.006
   0.02006864  0.02006864  0.04346709       0.006
   0.04013729  0.02006864  0.04346709       0.012
   0.06020593  0.02006864  0.04346709       0.012
   0.08027457  0.02006864  0.04346709       0.012
   0.10034322  0.02006864  0.04346709       0.012
   0.12041186  0.02006864  0.04346709       0.012
   0.04013729  0.04013729  0.04346709       0.006
   0.06020593  0.04013729  0.04346709       0.012
   0.08027457  0.04013729  0.04346709       0.012
   0.10034322  0.04013729  0.04346709       0.012
   0.12041186  0.04013729  0.04346709       0.012
   0.06020593  0.06020593  0.04346709       0.006
   0.08027457  0.06020593  0.04346709       0.012
   0.10034322  0.06020593  0.04346709       0.012
   0.12041186  0.06020593  0.04346709       0.012
   0.08027457  0.08027457  0.04346709       0.006
   0.10034322  0.08027457  0.04346709       0.012
   0.12041186  0.08027457  0.04346709       0.012
   0.10034322  0.10034322  0.04346709       0.006
   0.12041186  0.10034322  0.04346709       0.012
   0.12041186  0.12041186  0.04346709       0.006
 
 k-points in reciprocal lattice and weights: pymatgen with grid density = 8800 / numb
   0.00000000  0.00000000  0.00000000       0.001
   0.07692308  0.00000000  0.00000000       0.006
   0.15384615  0.00000000  0.00000000       0.006
   0.23076923  0.00000000  0.00000000       0.006
   0.30769231  0.00000000  0.00000000       0.006
   0.38461538  0.00000000  0.00000000       0.006
   0.46153846  0.00000000  0.00000000       0.006
   0.07692308  0.07692308  0.00000000       0.006
   0.15384615  0.07692308  0.00000000       0.012
   0.23076923  0.07692308  0.00000000       0.012
   0.30769231  0.07692308  0.00000000       0.012
   0.38461538  0.07692308  0.00000000       0.012
   0.46153846  0.07692308  0.00000000       0.012
   0.15384615  0.15384615  0.00000000       0.006
   0.23076923  0.15384615  0.00000000       0.012
   0.30769231  0.15384615  0.00000000       0.012
   0.38461538  0.15384615  0.00000000       0.012
   0.46153846  0.15384615  0.00000000       0.012
   0.23076923  0.23076923  0.00000000       0.006
   0.30769231  0.23076923  0.00000000       0.012
   0.38461538  0.23076923  0.00000000       0.012
   0.46153846  0.23076923  0.00000000       0.012
   0.30769231  0.30769231  0.00000000       0.006
   0.38461538  0.30769231  0.00000000       0.012
   0.46153846  0.30769231  0.00000000       0.012
   0.38461538  0.38461538  0.00000000       0.006
   0.46153846  0.38461538  0.00000000       0.012
   0.46153846  0.46153846  0.00000000       0.006
   0.00000000  0.00000000  0.25000000       0.003
   0.07692308  0.00000000  0.25000000       0.012
   0.15384615  0.00000000  0.25000000       0.012
   0.23076923  0.00000000  0.25000000       0.012
   0.30769231  0.00000000  0.25000000       0.012
   0.38461538  0.00000000  0.25000000       0.012
   0.46153846  0.00000000  0.25000000       0.012
   0.07692308  0.07692308  0.25000000       0.012
   0.15384615  0.07692308  0.25000000       0.024
   0.23076923  0.07692308  0.25000000       0.024
   0.30769231  0.07692308  0.25000000       0.024
   0.38461538  0.07692308  0.25000000       0.024
   0.46153846  0.07692308  0.25000000       0.024
   0.15384615  0.15384615  0.25000000       0.012
   0.23076923  0.15384615  0.25000000       0.024
   0.30769231  0.15384615  0.25000000       0.024
   0.38461538  0.15384615  0.25000000       0.024
   0.46153846  0.15384615  0.25000000       0.024
   0.23076923  0.23076923  0.25000000       0.012
   0.30769231  0.23076923  0.25000000       0.024
   0.38461538  0.23076923  0.25000000       0.024
   0.46153846  0.23076923  0.25000000       0.024
   0.30769231  0.30769231  0.25000000       0.012
   0.38461538  0.30769231  0.25000000       0.024
   0.46153846  0.30769231  0.25000000       0.024
   0.38461538  0.38461538  0.25000000       0.012
   0.46153846  0.38461538  0.25000000       0.024
   0.46153846  0.46153846  0.25000000       0.012
   0.00000000  0.00000000  0.50000000       0.001
   0.07692308  0.00000000  0.50000000       0.006
   0.15384615  0.00000000  0.50000000       0.006
   0.23076923  0.00000000  0.50000000       0.006
   0.30769231  0.00000000  0.50000000       0.006
   0.38461538  0.00000000  0.50000000       0.006
   0.46153846  0.00000000  0.50000000       0.006
   0.07692308  0.07692308  0.50000000       0.006
   0.15384615  0.07692308  0.50000000       0.012
   0.23076923  0.07692308  0.50000000       0.012
   0.30769231  0.07692308  0.50000000       0.012
   0.38461538  0.07692308  0.50000000       0.012
   0.46153846  0.07692308  0.50000000       0.012
   0.15384615  0.15384615  0.50000000       0.006
   0.23076923  0.15384615  0.50000000       0.012
   0.30769231  0.15384615  0.50000000       0.012
   0.38461538  0.15384615  0.50000000       0.012
   0.46153846  0.15384615  0.50000000       0.012
   0.23076923  0.23076923  0.50000000       0.006
   0.30769231  0.23076923  0.50000000       0.012
   0.38461538  0.23076923  0.50000000       0.012
   0.46153846  0.23076923  0.50000000       0.012
   0.30769231  0.30769231  0.50000000       0.006
   0.38461538  0.30769231  0.50000000       0.012
   0.46153846  0.30769231  0.50000000       0.012
   0.38461538  0.38461538  0.50000000       0.006
   0.46153846  0.38461538  0.50000000       0.012
   0.46153846  0.46153846  0.50000000       0.006
 
 position of ions in fractional coordinates (direct lattice) 
   0.00000000  0.50000000  0.16676048
   0.00000000  0.50000000  0.50000000
   0.00000000  0.50000000  0.83323952
   0.50000000  0.50000000  0.00000000
   0.50000000  0.50000000  0.33344912
   0.50000000  0.50000000  0.66655088
   0.50000000  0.00000000  0.16676048
   0.50000000  0.00000000  0.50000000
   0.50000000  0.00000000  0.83323952
   0.00000000  0.00000000  0.00000000
   0.00000000  0.00000000  0.33339531
   0.00000000  0.00000000  0.66660469
 
 position of ions in cartesian coordinates  (Angst):
   0.00000000  1.91649915  1.91823845
   0.00000000  1.91649915  5.75147789
   0.00000000  1.91649915  9.58471732
   1.91649915  1.91649915  0.00000000
   1.91649915  1.91649915  3.83565046
   1.91649915  1.91649915  7.66730531
   1.91649915  0.00000000  1.91823845
   1.91649915  0.00000000  5.75147789
   1.91649915  0.00000000  9.58471732
   0.00000000  0.00000000  0.00000000
   0.00000000  0.00000000  3.83503153
   0.00000000  0.00000000  7.66792424
 


--------------------------------------------------------------------------------------------------------


 k-point     1 :   0.0000 0.0000 0.0000  plane waves:    4555
 k-point     2 :   0.0769 0.0000 0.0000  plane waves:    4531
 k-point     3 :   0.1538 0.0000 0.0000  plane waves:    4522
 k-point     4 :   0.2308 0.0000 0.0000  plane waves:    4560
 k-point     5 :   0.3077 0.0000 0.0000  plane waves:    4548
 k-point     6 :   0.3846 0.0000 0.0000  plane waves:    4564
 k-point     7 :   0.4615 0.0000 0.0000  plane waves:    4568
 k-point     8 :   0.0769 0.0769 0.0000  plane waves:    4534
 k-point     9 :   0.1538 0.0769 0.0000  plane waves:    4527
 k-point    10 :   0.2308 0.0769 0.0000  plane waves:    4546
 k-point    11 :   0.3077 0.0769 0.0000  plane waves:    4553
 k-point    12 :   0.3846 0.0769 0.0000  plane waves:    4556
 k-point    13 :   0.4615 0.0769 0.0000  plane waves:    4563
 k-point    14 :   0.1538 0.1538 0.0000  plane waves:    4544
 k-point    15 :   0.2308 0.1538 0.0000  plane waves:    4545
 k-point    16 :   0.3077 0.1538 0.0000  plane waves:    4567
 k-point    17 :   0.3846 0.1538 0.0000  plane waves:    4543
 k-point    18 :   0.4615 0.1538 0.0000  plane waves:    4555
 k-point    19 :   0.2308 0.2308 0.0000  plane waves:    4548
 k-point    20 :   0.3077 0.2308 0.0000  plane waves:    4561
 k-point    21 :   0.3846 0.2308 0.0000  plane waves:    4558
 k-point    22 :   0.4615 0.2308 0.0000  plane waves:    4554
 k-point    23 :   0.3077 0.3077 0.0000  plane waves:    4554
 k-point    24 :   0.3846 0.3077 0.0000  plane waves:    4548
 k-point    25 :   0.4615 0.3077 0.0000  plane waves:    4550
 k-point    26 :   0.3846 0.3846 0.0000  plane waves:    4556
 k-point    27 :   0.4615 0.3846 0.0000  plane waves:    4552
 k-point    28 :   0.4615 0.4615 0.0000  plane waves:    4558
 k-point    29 :   0.0000 0.0000 0.2500  plane waves:    4515
 k-point    30 :   0.0769 0.0000 0.2500  plane waves:    4514
 k-point    31 :   0.1538 0.0000 0.2500  plane waves:    4526
 k-point    32 :   0.2308 0.0000 0.2500  plane waves:    4551
 k-point    33 :   0.3077 0.0000 0.2500  plane waves:    4557
 k-point    34 :   0.3846 0.0000 0.2500  plane waves:    4555
 k-point    35 :   0.4615 0.0000 0.2500  plane waves:    4549
 k-point    36 :   0.0769 0.0769 0.2500  plane waves:    4518
 k-point    37 :   0.1538 0.0769 0.2500  plane waves:    4525
 k-point    38 :   0.2308 0.0769 0.2500  plane waves:    4546
 k-point    39 :   0.3077 0.0769 0.2500  plane waves:    4562
 k-point    40 :   0.3846 0.0769 0.2500  plane waves:    4563
 k-point    41 :   0.4615 0.0769 0.2500  plane waves:    4564
 k-point    42 :   0.1538 0.1538 0.2500  plane waves:    4532
 k-point    43 :   0.2308 0.1538 0.2500  plane waves:    4547
 k-point    44 :   0.3077 0.1538 0.2500  plane waves:    4547
 k-point    45 :   0.3846 0.1538 0.2500  plane waves:    4554
 k-point    46 :   0.4615 0.1538 0.2500  plane waves:    4553
 k-point    47 :   0.2308 0.2308 0.2500  plane waves:    4544
 k-point    48 :   0.3077 0.2308 0.2500  plane waves:    4552
 k-point    49 :   0.3846 0.2308 0.2500  plane waves:    4551
 k-point    50 :   0.4615 0.2308 0.2500  plane waves:    4556
 k-point    51 :   0.3077 0.3077 0.2500  plane waves:    4555
 k-point    52 :   0.3846 0.3077 0.2500  plane waves:    4550
 k-point    53 :   0.4615 0.3077 0.2500  plane waves:    4558
 k-point    54 :   0.3846 0.3846 0.2500  plane waves:    4568
 k-point    55 :   0.4615 0.3846 0.2500  plane waves:    4574
 k-point    56 :   0.4615 0.4615 0.2500  plane waves:    4570
 k-point    57 :   0.0000 0.0000 0.5000  plane waves:    4506
 k-point    58 :   0.0769 0.0000 0.5000  plane waves:    4512
 k-point    59 :   0.1538 0.0000 0.5000  plane waves:    4520
 k-point    60 :   0.2308 0.0000 0.5000  plane waves:    4542
 k-point    61 :   0.3077 0.0000 0.5000  plane waves:    4560
 k-point    62 :   0.3846 0.0000 0.5000  plane waves:    4550
 k-point    63 :   0.4615 0.0000 0.5000  plane waves:    4552
 k-point    64 :   0.0769 0.0769 0.5000  plane waves:    4510
 k-point    65 :   0.1538 0.0769 0.5000  plane waves:    4516
 k-point    66 :   0.2308 0.0769 0.5000  plane waves:    4550
 k-point    67 :   0.3077 0.0769 0.5000  plane waves:    4554
 k-point    68 :   0.3846 0.0769 0.5000  plane waves:    4574
 k-point    69 :   0.4615 0.0769 0.5000  plane waves:    4548
 k-point    70 :   0.1538 0.1538 0.5000  plane waves:    4534
 k-point    71 :   0.2308 0.1538 0.5000  plane waves:    4546
 k-point    72 :   0.3077 0.1538 0.5000  plane waves:    4552
 k-point    73 :   0.3846 0.1538 0.5000  plane waves:    4570
 k-point    74 :   0.4615 0.1538 0.5000  plane waves:    4570
 k-point    75 :   0.2308 0.2308 0.5000  plane waves:    4546
 k-point    76 :   0.3077 0.2308 0.5000  plane waves:    4548
 k-point    77 :   0.3846 0.2308 0.5000  plane waves:    4554
 k-point    78 :   0.4615 0.2308 0.5000  plane waves:    4558
 k-point    79 :   0.3077 0.3077 0.5000  plane waves:    4560
 k-point    80 :   0.3846 0.3077 0.5000  plane waves:    4554
 k-point    81 :   0.4615 0.3077 0.5000  plane waves:    4558
 k-point    82 :   0.3846 0.3846 0.5000  plane waves:    4550
 k-point    83 :   0.4615 0.3846 0.5000  plane waves:    4554
 k-point    84 :   0.4615 0.4615 0.5000  plane waves:    4570

 maximum and minimum number of plane-waves per node :      4574     4506

 maximum number of plane-waves:      4574
 maximum index in each direction: 
   IXMAX=    7   IYMAX=    7   IZMAX=   21
   IXMIN=   -7   IYMIN=   -7   IZMIN=  -21


 serial   3D FFT for wavefunctions
 parallel 3D FFT for charge:
    minimum data exchange during FFTs selected (reduces bandwidth)


 total amount of memory used by VASP MPI-rank0   202870. kBytes
=======================================================================

   base      :      30000. kBytes
   nonl-proj :     111581. kBytes
   fftplans  :       1055. kBytes
   grid      :       8252. kBytes
   one-center:        373. kBytes
   wavefun   :      51609. kBytes
 
     INWAV:  cpu time      0.0000: real time      0.0000
 Broyden mixing: mesh for mixing (old mesh)
   NGX = 15   NGY = 15   NGZ = 43
  (NGX  = 60   NGY  = 60   NGZ  =180)
  gives a total of   9675 points

 initial charge density was supplied:
 charge density of overlapping atoms calculated
 number of electron     156.0000000 magnetization      26.7410000
 keeping initial charge density in first step


--------------------------------------------------------------------------------------------------------


 Maximum index for augmentation-charges         1117 (set IRDMAX)


--------------------------------------------------------------------------------------------------------


 First call to EWALD:  gamma=   0.321
 Maximum number of real-space cells 4x 4x 2
 Maximum number of reciprocal cells 2x 2x 5

    FEWALD:  cpu time      0.0014: real time      0.0015


--------------------------------------- Ionic step        1  -------------------------------------------




--------------------------------------- Iteration      1(   1)  ---------------------------------------


    POTLOK:  cpu time      0.0310: real time      0.0496
    SETDIJ:  cpu time      0.0100: real time      0.0104
     EDDAV:  cpu time      6.6697: real time      6.7177
 BZINTS: Fermi energy:   22.104917;  156.000000 electrons
         Band energy: 0.388320E+03;  BLOECHL correction:   -0.053483
       DOS:  cpu time      0.1279: real time      0.1290
    --------------------------------------------
      LOOP:  cpu time      6.8386: real time      6.9067

 eigenvalue-minimisations  : 43008
 total energy-change (2. order) : 0.1776262E+04  (-0.8500980E+04)
 number of electron     156.0000000 magnetization      26.7410000
 augmentation part      156.0000000 magnetization      26.7410000

 Free energy of the ion-electron system (eV)
  ---------------------------------------------------
  alpha Z        PSCENC =      1007.04218677
  Ewald energy   TEWEN  =    -17615.96813182
  -Hartree energ DENC   =     -6238.05992486
  -exchange      EXHF   =         0.00000000
  -V(xc)+E(xc)   XCENC  =       654.67418639
  PAW double counting   =     20093.14733035   -20816.99648936
  entropy T*S    EENTRO =         0.00000000
  eigenvalues    EBANDS =       388.31984833
  atomic energy  EATOM  =     24304.10294433
  Solvation  Ediel_sol  =         0.00000000
  ---------------------------------------------------
  free energy    TOTEN  =      1776.26195012 eV

  energy without entropy =     1776.26195012  energy(sigma->0) =     1776.26195012


--------------------------------------------------------------------------------------------------------




--------------------------------------- Iteration      1(   2)  ---------------------------------------


     EDDAV:  cpu time      6.5859: real time      6.6411
 BZINTS: Fermi energy:   11.060938;  156.000000 electrons
         Band energy:-0.138101E+04;  BLOECHL correction:   -0.026505
       DOS:  cpu time      0.1288: real time      0.1297
    --------------------------------------------
      LOOP:  cpu time      6.7147: real time      6.7708

 eigenvalue-minimisations  : 43008
 total energy-change (2. order) :-0.1769330E+04  (-0.1677028E+04)
 number of electron     156.0000000 magnetization      26.7410000
 augmentation part      156.0000000 magnetization      26.7410000

 Free energy of the ion-electron system (eV)
  ---------------------------------------------------
  alpha Z        PSCENC =      1007.04218677
  Ewald energy   TEWEN  =    -17615.96813182
  -Hartree energ DENC   =     -6238.05992486
  -exchange      EXHF   =         0.00000000
  -V(xc)+E(xc)   XCENC  =       654.67418639
  PAW double counting   =     20093.14733035   -20816.99648936
  entropy T*S    EENTRO =         0.00000000
  eigenvalues    EBANDS =     -1381.00984765
  atomic energy  EATOM  =     24304.10294433
  Solvation  Ediel_sol  =         0.00000000
  ---------------------------------------------------
  free energy    TOTEN  =         6.93225415 eV

  energy without entropy =        6.93225415  energy(sigma->0) =        6.93225415


--------------------------------------------------------------------------------------------------------




--------------------------------------- Iteration      1(   3)  ---------------------------------------


     EDDAV:  cpu time      7.9414: real time      8.0045
 BZINTS: Fermi energy:   10.444758;  156.000000 electrons
         Band energy:-0.148996E+04;  BLOECHL correction:   -0.038779
       DOS:  cpu time      0.1277: real time      0.1287
    --------------------------------------------
      LOOP:  cpu time      8.0691: real time      8.1332

 eigenvalue-minimisations  : 51200
 total energy-change (2. order) :-0.1089549E+03  (-0.1070658E+03)
 number of electron     156.0000000 magnetization      26.7410000
 augmentation part      156.0000000 magnetization      26.7410000

 Free energy of the ion-electron system (eV)
  ---------------------------------------------------
  alpha Z        PSCENC =      1007.04218677
  Ewald energy   TEWEN  =    -17615.96813182
  -Hartree energ DENC   =     -6238.05992486
  -exchange      EXHF   =         0.00000000
  -V(xc)+E(xc)   XCENC  =       654.67418639
  PAW double counting   =     20093.14733035   -20816.99648936
  entropy T*S    EENTRO =         0.00000000
  eigenvalues    EBANDS =     -1489.96476798
  atomic energy  EATOM  =     24304.10294433
  Solvation  Ediel_sol  =         0.00000000
  ---------------------------------------------------
  free energy    TOTEN  =      -102.02266618 eV

  energy without entropy =     -102.02266618  energy(sigma->0) =     -102.02266618


--------------------------------------------------------------------------------------------------------




--------------------------------------- Iteration      1(   4)  ---------------------------------------


     EDDAV:  cpu time      6.9686: real time      7.0287
 BZINTS: Fermi energy:   10.439957;  156.000000 electrons
         Band energy:-0.149163E+04;  BLOECHL correction:   -0.038836
       DOS:  cpu time      0.1295: real time      0.1304
    --------------------------------------------
      LOOP:  cpu time      7.0981: real time      7.1592

 eigenvalue-minimisations  : 45600
 total energy-change (2. order) :-0.1669542E+01  (-0.1669081E+01)
 number of electron     156.0000000 magnetization      26.7410000
 augmentation part      156.0000000 magnetization      26.7410000

 Free energy of the ion-electron system (eV)
  ---------------------------------------------------
  alpha Z        PSCENC =      1007.04218677
  Ewald energy   TEWEN  =    -17615.96813182
  -Hartree energ DENC   =     -6238.05992486
  -exchange      EXHF   =         0.00000000
  -V(xc)+E(xc)   XCENC  =       654.67418639
  PAW double counting   =     20093.14733035   -20816.99648936
  entropy T*S    EENTRO =         0.00000000
  eigenvalues    EBANDS =     -1491.63430972
  atomic energy  EATOM  =     24304.10294433
  Solvation  Ediel_sol  =         0.00000000
  ---------------------------------------------------
  free energy    TOTEN  =      -103.69220793 eV

  energy without entropy =     -103.69220793  energy(sigma->0) =     -103.69220793


--------------------------------------------------------------------------------------------------------




--------------------------------------- Iteration      1(   5)  ---------------------------------------


     EDDAV:  cpu time      8.2460: real time      8.3171
 BZINTS: Fermi energy:   10.439910;  156.000000 electrons
         Band energy:-0.149167E+04;  BLOECHL correction:   -0.038835
       DOS:  cpu time      0.1294: real time      0.1305
    CHARGE:  cpu time      0.1818: real time      0.1836
    MIXING:  cpu time      0.0055: real time      0.0059
    --------------------------------------------
      LOOP:  cpu time      8.5626: real time      8.6371

 eigenvalue-minimisations  : 52608
 total energy-change (2. order) :-0.3484535E-01  (-0.3484460E-01)
 number of electron     155.9999837 magnetization      26.2341197
 augmentation part       79.4987219 magnetization      18.5902719

 Broyden mixing:
  rms(total) = 0.35313E+01    rms(broyden)= 0.35311E+01
  rms(prec ) = 0.40296E+01
  weight for this iteration     100.00

 Free energy of the ion-electron system (eV)
  ---------------------------------------------------
  alpha Z        PSCENC =      1007.04218677
  Ewald energy   TEWEN  =    -17615.96813182
  -Hartree energ DENC   =     -6238.05992486
  -exchange      EXHF   =         0.00000000
  -V(xc)+E(xc)   XCENC  =       654.67418639
  PAW double counting   =     20093.14733035   -20816.99648936
  entropy T*S    EENTRO =         0.00000000
  eigenvalues    EBANDS =     -1491.66915507
  atomic energy  EATOM  =     24304.10294433
  Solvation  Ediel_sol  =         0.00000000
  ---------------------------------------------------
  free energy    TOTEN  =      -103.72705328 eV

  energy without entropy =     -103.72705328  energy(sigma->0) =     -103.72705328


--------------------------------------------------------------------------------------------------------




--------------------------------------- Iteration      1(   6)  ---------------------------------------


    POTLOK:  cpu time      0.0444: real time      0.0484
    SETDIJ:  cpu time      0.0086: real time      0.0087
     EDDAV:  cpu time      7.4076: real time      7.4657
 BZINTS: Fermi energy:    7.892093;  156.000000 electrons
         Band energy:-0.192807E+04;  BLOECHL correction:   -0.066732
       DOS:  cpu time      0.1356: real time      0.1371
    CHARGE:  cpu time      0.1783: real time      0.1794
    MIXING:  cpu time      0.0034: real time      0.0036
    --------------------------------------------
      LOOP:  cpu time      7.7779: real time      7.8428

 eigenvalue-minimisations  : 48480
 total energy-change (2. order) : 0.1125745E+01  (-0.6823509E+01)
 number of electron     155.9999822 magnetization      25.5486183
 augmentation part       88.5542177 magnetization      20.2511839

 Broyden mixing:
  rms(total) = 0.40955E+01    rms(broyden)= 0.40954E+01
  rms(prec ) = 0.49820E+01
  weight for this iteration     100.00

 eigenvalues of (default mixing * dielectric matrix)
  average eigenvalue GAMMA=   0.3492
  0.3492

 Free energy of the ion-electron system (eV)
  ---------------------------------------------------
  alpha Z        PSCENC =      1007.04218677
  Ewald energy   TEWEN  =    -17615.96813182
  -Hartree energ DENC   =     -5808.99207907
  -exchange      EXHF   =         0.00000000
  -V(xc)+E(xc)   XCENC  =       637.99273266
  PAW double counting   =     20202.95732420   -20901.66926366
  entropy T*S    EENTRO =         0.00000000
  eigenvalues    EBANDS =     -1928.06702205
  atomic energy  EATOM  =     24304.10294433
  Solvation  Ediel_sol  =         0.00000000
  ---------------------------------------------------
  free energy    TOTEN  =      -102.60130864 eV

  energy without entropy =     -102.60130864  energy(sigma->0) =     -102.60130864


--------------------------------------------------------------------------------------------------------




--------------------------------------- Iteration      1(   7)  ---------------------------------------


    POTLOK:  cpu time      0.0426: real time      0.0486
    SETDIJ:  cpu time      0.0084: real time      0.0085
     EDDAV:  cpu time      7.5452: real time      7.6053
 BZINTS: Fermi energy:    8.996847;  156.000000 electrons
         Band energy:-0.174179E+04;  BLOECHL correction:   -0.060752
       DOS:  cpu time      0.1363: real time      0.1376
    CHARGE:  cpu time      0.1701: real time      0.1712
    MIXING:  cpu time      0.0030: real time      0.0031
    --------------------------------------------
      LOOP:  cpu time      7.9057: real time      7.9742

 eigenvalue-minimisations  : 49248
 total energy-change (2. order) : 0.7855226E+01  (-0.8732294E+01)
 number of electron     155.9999832 magnetization      25.5378855
 augmentation part       84.2295705 magnetization      18.4847562

 Broyden mixing:
  rms(total) = 0.17504E+01    rms(broyden)= 0.17504E+01
  rms(prec ) = 0.20332E+01
  weight for this iteration     100.00

 eigenvalues of (default mixing * dielectric matrix)
  average eigenvalue GAMMA=   0.6401
  0.9802  0.3000

 Free energy of the ion-electron system (eV)
  ---------------------------------------------------
  alpha Z        PSCENC =      1007.04218677
  Ewald energy   TEWEN  =    -17615.96813182
  -Hartree energ DENC   =     -5961.66362921
  -exchange      EXHF   =         0.00000000
  -V(xc)+E(xc)   XCENC  =       642.54691519
  PAW double counting   =     20744.42089858   -21473.44225381
  entropy T*S    EENTRO =         0.00000000
  eigenvalues    EBANDS =     -1741.78501223
  atomic energy  EATOM  =     24304.10294433
  Solvation  Ediel_sol  =         0.00000000
  ---------------------------------------------------
  free energy    TOTEN  =       -94.74608220 eV

  energy without entropy =      -94.74608220  energy(sigma->0) =      -94.74608220


--------------------------------------------------------------------------------------------------------




--------------------------------------- Iteration      1(   8)  ---------------------------------------


    POTLOK:  cpu time      0.0421: real time      0.0476
    SETDIJ:  cpu time      0.0090: real time      0.0091
     EDDAV:  cpu time      8.1670: real time      8.2269
 BZINTS: Fermi energy:    8.858476;  156.000000 electrons
         Band energy:-0.176553E+04;  BLOECHL correction:   -0.043601
       DOS:  cpu time      0.1365: real time      0.1375
    CHARGE:  cpu time      0.1718: real time      0.1728
    MIXING:  cpu time      0.0020: real time      0.0020
    --------------------------------------------
      LOOP:  cpu time      8.5284: real time      8.5959

 eigenvalue-minimisations  : 52576
 total energy-change (2. order) :-0.4268370E+00  (-0.1013667E+01)
 number of electron     155.9999829 magnetization      25.5533202
 augmentation part       84.8059937 magnetization      19.0655187

 Broyden mixing:
  rms(total) = 0.19925E+01    rms(broyden)= 0.19924E+01
  rms(prec ) = 0.31666E+01
  weight for this iteration     100.00

 eigenvalues of (default mixing * dielectric matrix)
  average eigenvalue GAMMA=   0.5507
  1.0643  0.2939  0.2939

 Free energy of the ion-electron system (eV)
  ---------------------------------------------------
  alpha Z        PSCENC =      1007.04218677
  Ewald energy   TEWEN  =    -17615.96813182
  -Hartree energ DENC   =     -5927.39292856
  -exchange      EXHF   =         0.00000000
  -V(xc)+E(xc)   XCENC  =       643.13606748
  PAW double counting   =     21139.16758935   -21879.73011306
  entropy T*S    EENTRO =         0.00000000
  eigenvalues    EBANDS =     -1765.53053366
  atomic energy  EATOM  =     24304.10294433
  Solvation  Ediel_sol  =         0.00000000
  ---------------------------------------------------
  free energy    TOTEN  =       -95.17291917 eV

  energy without entropy =      -95.17291917  energy(sigma->0) =      -95.17291917


--------------------------------------------------------------------------------------------------------




--------------------------------------- Iteration      1(   9)  ---------------------------------------


    POTLOK:  cpu time      0.0479: real time      0.0488
    SETDIJ:  cpu time      0.0086: real time      0.0086
     EDDAV:  cpu time      8.0791: real time      8.1424
 BZINTS: Fermi energy:    8.804320;  156.000000 electrons
         Band energy:-0.176917E+04;  BLOECHL correction:   -0.060347
       DOS:  cpu time      0.1375: real time      0.1384
    CHARGE:  cpu time      0.1723: real time      0.1734
    MIXING:  cpu time      0.0020: real time      0.0020
    --------------------------------------------
      LOOP:  cpu time      8.4473: real time      8.5136

 eigenvalue-minimisations  : 52160
 total energy-change (2. order) : 0.1508721E+01  (-0.1286851E+01)
 number of electron     155.9999829 magnetization      25.7613177
 augmentation part       84.8857534 magnetization      19.3409799

 Broyden mixing:
  rms(total) = 0.11597E+01    rms(broyden)= 0.11595E+01
  rms(prec ) = 0.17453E+01
  weight for this iteration     100.00

 eigenvalues of (default mixing * dielectric matrix)
  average eigenvalue GAMMA=   0.7153
  1.6364  0.7832  0.3249  0.1167

 Free energy of the ion-electron system (eV)
  ---------------------------------------------------
  alpha Z        PSCENC =      1007.04218677
  Ewald energy   TEWEN  =    -17615.96813182
  -Hartree energ DENC   =     -5920.20769180
  -exchange      EXHF   =         0.00000000
  -V(xc)+E(xc)   XCENC  =       643.05100089
  PAW double counting   =     21209.43621593   -21951.95514195
  entropy T*S    EENTRO =         0.00000000
  eigenvalues    EBANDS =     -1769.16558011
  atomic energy  EATOM  =     24304.10294433
  Solvation  Ediel_sol  =         0.00000000
  ---------------------------------------------------
  free energy    TOTEN  =       -93.66419776 eV

  energy without entropy =      -93.66419776  energy(sigma->0) =      -93.66419776


--------------------------------------------------------------------------------------------------------




--------------------------------------- Iteration      1(  10)  ---------------------------------------


    POTLOK:  cpu time      0.0478: real time      0.0487
    SETDIJ:  cpu time      0.0079: real time      0.0080
     EDDAV:  cpu time      7.8641: real time      7.9246
 BZINTS: Fermi energy:    8.675192;  156.000000 electrons
         Band energy:-0.178402E+04;  BLOECHL correction:   -0.067720
       DOS:  cpu time      0.1353: real time      0.1367
    CHARGE:  cpu time      0.1712: real time      0.1723
    MIXING:  cpu time      0.0019: real time      0.0020
    --------------------------------------------
      LOOP:  cpu time      8.2282: real time      8.2922

 eigenvalue-minimisations  : 51168
 total energy-change (2. order) : 0.5231202E+00  (-0.2460837E+00)
 number of electron     155.9999829 magnetization      25.8370332
 augmentation part       85.1847381 magnetization      19.7236060

 Broyden mixing:
  rms(total) = 0.61081E+00    rms(broyden)= 0.61079E+00
  rms(prec ) = 0.72302E+00
  weight for this iteration     100.00

 eigenvalues of (default mixing * dielectric matrix)
  average eigenvalue GAMMA=   0.6679
  1.7322  0.7945  0.3470  0.3470  0.1186

 Free energy of the ion-electron system (eV)
  ---------------------------------------------------
  alpha Z        PSCENC =      1007.04218677
  Ewald energy   TEWEN  =    -17615.96813182
  -Hartree energ DENC   =     -5895.09123618
  -exchange      EXHF   =         0.00000000
  -V(xc)+E(xc)   XCENC  =       642.79996209
  PAW double counting   =     21537.76970202   -22289.77552586
  entropy T*S    EENTRO =         0.00000000
  eigenvalues    EBANDS =     -1784.02097891
  atomic energy  EATOM  =     24304.10294433
  Solvation  Ediel_sol  =         0.00000000
  ---------------------------------------------------
  free energy    TOTEN  =       -93.14107755 eV

  energy without entropy =      -93.14107755  energy(sigma->0) =      -93.14107755


--------------------------------------------------------------------------------------------------------




--------------------------------------- Iteration      1(  11)  ---------------------------------------


    POTLOK:  cpu time      0.0415: real time      0.0478
    SETDIJ:  cpu time      0.0089: real time      0.0089
     EDDAV:  cpu time      7.7240: real time      7.7847
 BZINTS: Fermi energy:    8.676712;  156.000000 electrons
         Band energy:-0.178370E+04;  BLOECHL correction:   -0.065572
       DOS:  cpu time      0.1372: real time      0.1381
    CHARGE:  cpu time      0.1776: real time      0.1787
    MIXING:  cpu time      0.0020: real time      0.0020
    --------------------------------------------
      LOOP:  cpu time      8.0912: real time      8.1602

 eigenvalue-minimisations  : 50784
 total energy-change (2. order) :-0.1560914E+00  (-0.1843192E+00)
 number of electron     155.9999829 magnetization      25.9298459
 augmentation part       85.1679682 magnetization      19.8065578

 Broyden mixing:
  rms(total) = 0.82733E+00    rms(broyden)= 0.82727E+00
  rms(prec ) = 0.10390E+01
  weight for this iteration     100.00

 eigenvalues of (default mixing * dielectric matrix)
  average eigenvalue GAMMA=   0.6642
  1.8251  0.7702  0.7702  0.3336  0.1188  0.1674

 Free energy of the ion-electron system (eV)
  ---------------------------------------------------
  alpha Z        PSCENC =      1007.04218677
  Ewald energy   TEWEN  =    -17615.96813182
  -Hartree energ DENC   =     -5893.16195883
  -exchange      EXHF   =         0.00000000
  -V(xc)+E(xc)   XCENC  =       642.79959163
  PAW double counting   =     21607.60536089   -22362.01929822
  entropy T*S    EENTRO =         0.00000000
  eigenvalues    EBANDS =     -1783.69786371
  atomic energy  EATOM  =     24304.10294433
  Solvation  Ediel_sol  =         0.00000000
  ---------------------------------------------------
  free energy    TOTEN  =       -93.29716895 eV

  energy without entropy =      -93.29716895  energy(sigma->0) =      -93.29716895


--------------------------------------------------------------------------------------------------------




--------------------------------------- Iteration      1(  12)  ---------------------------------------


    POTLOK:  cpu time      0.0480: real time      0.0490
    SETDIJ:  cpu time      0.0084: real time      0.0085
     EDDAV:  cpu time      7.7385: real time      7.7983
 BZINTS: Fermi energy:    8.696278;  156.000000 electrons
         Band energy:-0.178182E+04;  BLOECHL correction:   -0.071991
       DOS:  cpu time      0.1356: real time      0.1366
    CHARGE:  cpu time      0.1720: real time      0.1733
    MIXING:  cpu time      0.0023: real time      0.0023
    --------------------------------------------
      LOOP:  cpu time      8.1049: real time      8.1680

 eigenvalue-minimisations  : 50528
 total energy-change (2. order) : 0.2497125E+00  (-0.9262154E-01)
 number of electron     155.9999829 magnetization      26.0740601
 augmentation part       85.1009970 magnetization      19.9357067

 Broyden mixing:
  rms(total) = 0.26378E+00    rms(broyden)= 0.26373E+00
  rms(prec ) = 0.32512E+00
  weight for this iteration     100.00

 eigenvalues of (default mixing * dielectric matrix)
  average eigenvalue GAMMA=   0.7530
  2.1509  0.9253  0.9253  0.6723  0.3330  0.1181  0.1460

 Free energy of the ion-electron system (eV)
  ---------------------------------------------------
  alpha Z        PSCENC =      1007.04218677
  Ewald energy   TEWEN  =    -17615.96813182
  -Hartree energ DENC   =     -5892.36138895
  -exchange      EXHF   =         0.00000000
  -V(xc)+E(xc)   XCENC  =       642.80083770
  PAW double counting   =     21677.59807086   -22434.44643921
  entropy T*S    EENTRO =         0.00000000
  eigenvalues    EBANDS =     -1781.81553617
  atomic energy  EATOM  =     24304.10294433
  Solvation  Ediel_sol  =         0.00000000
  ---------------------------------------------------
  free energy    TOTEN  =       -93.04745650 eV

  energy without entropy =      -93.04745650  energy(sigma->0) =      -93.04745650


--------------------------------------------------------------------------------------------------------




--------------------------------------- Iteration      1(  13)  ---------------------------------------


    POTLOK:  cpu time      0.0476: real time      0.0487
    SETDIJ:  cpu time      0.0079: real time      0.0080
     EDDAV:  cpu time      7.5841: real time      7.6444
 BZINTS: Fermi energy:    8.694685;  156.000000 electrons
         Band energy:-0.178322E+04;  BLOECHL correction:   -0.074585
       DOS:  cpu time      0.1358: real time      0.1369
    CHARGE:  cpu time      0.1738: real time      0.1750
    MIXING:  cpu time      0.0020: real time      0.0020
    --------------------------------------------
      LOOP:  cpu time      7.9512: real time      8.0148

 eigenvalue-minimisations  : 50176
 total energy-change (2. order) :-0.6020730E-02  (-0.1121261E-01)
 number of electron     155.9999829 magnetization      26.1163851
 augmentation part       85.1142323 magnetization      19.9476870

 Broyden mixing:
  rms(total) = 0.24615E+00    rms(broyden)= 0.24615E+00
  rms(prec ) = 0.29650E+00
  weight for this iteration     100.00

 eigenvalues of (default mixing * dielectric matrix)
  average eigenvalue GAMMA=   0.7253
  2.2667  0.9977  0.9977  0.6765  0.3322  0.2662  0.1181  0.1473

 Free energy of the ion-electron system (eV)
  ---------------------------------------------------
  alpha Z        PSCENC =      1007.04218677
  Ewald energy   TEWEN  =    -17615.96813182
  -Hartree energ DENC   =     -5889.07897081
  -exchange      EXHF   =         0.00000000
  -V(xc)+E(xc)   XCENC  =       642.69959284
  PAW double counting   =     21746.08860220   -22504.72166905
  entropy T*S    EENTRO =         0.00000000
  eigenvalues    EBANDS =     -1783.21803169
  atomic energy  EATOM  =     24304.10294433
  Solvation  Ediel_sol  =         0.00000000
  ---------------------------------------------------
  free energy    TOTEN  =       -93.05347723 eV

  energy without entropy =      -93.05347723  energy(sigma->0) =      -93.05347723


--------------------------------------------------------------------------------------------------------




--------------------------------------- Iteration      1(  14)  ---------------------------------------


    POTLOK:  cpu time      0.0412: real time      0.0474
    SETDIJ:  cpu time      0.0090: real time      0.0090
     EDDAV:  cpu time      7.5597: real time      7.6156
[...]
    113      22.5742      0.00000
    114      23.1017      0.00000
    115      23.1024      0.00000
    116      23.3772      0.00000
    117      23.3804      0.00000
    118      24.1789      0.00000
    119      24.1797      0.00000
    120      25.7838      0.00000
    121      25.7873      0.00000
    122      25.8446      0.00000
    123      26.1418      0.00000
    124      26.8078      0.00000
    125      26.8078      0.00000
    126      27.2500      0.00000
    127      27.2504      0.00000
    128      27.7577      0.00000


--------------------------------------------------------------------------------------------------------


 soft charge-density along one line, spin component           1
         0         1         2         3         4         5         6         7         8         9
 total charge-density along one line
 
 soft charge-density along one line, spin component           2
         0         1         2         3         4         5         6         7         8         9
 total charge-density along one line
 
 pseudopotential strength for first ion, spin component:           1
-46.004  -0.000  -0.000   8.037   0.000   0.000  -0.000  -0.000
 -0.000 -46.001  -0.000   0.000   8.036   0.000  -0.000   0.000
 -0.000  -0.000 -45.892   0.000   0.000   7.991   0.000  -0.000
  8.037   0.000   0.000   5.536   0.000   0.000   0.000   0.000
  0.000   8.036   0.000   0.000   5.536   0.000   0.000  -0.000
  0.000   0.000   7.991   0.000   0.000   5.545  -0.000   0.000
 -0.000  -0.000   0.000   0.000   0.000  -0.000  -2.889  -0.000
 -0.000   0.000  -0.000   0.000  -0.000   0.000  -0.000  -2.967
 -0.000   0.000   0.000   0.000  -0.000  -0.000   0.000  -0.000
 -0.000  -0.000   0.000   0.000   0.000  -0.000  -0.000  -0.000
 -0.000   0.000   0.000   0.000  -0.000   0.000  -0.000   0.000
  0.000  -0.000   0.000   0.000   0.000  -0.000  -3.390  -0.000
 -0.000   0.000  -0.000   0.000  -0.000   0.000  -0.000  -3.466
 -0.000   0.000   0.000   0.000  -0.000  -0.000   0.000  -0.000
 -0.000  -0.000   0.000   0.000   0.000  -0.000  -0.000  -0.000
 -0.000   0.000  -0.000   0.000  -0.000   0.000  -0.000   0.000
 -0.000  -0.000  -0.000  -0.000   0.000   0.000   0.000   0.000
 -0.000   0.000   0.000  -0.000   0.000  -0.000   0.000   0.000
 pseudopotential strength for first ion, spin component:           2
-43.546  -0.000  -0.000   7.005   0.000   0.000  -0.000   0.000
 -0.000 -43.544  -0.000   0.000   7.004   0.000  -0.000   0.000
 -0.000  -0.000 -43.508   0.000   0.000   6.988   0.000  -0.000
  7.005   0.000   0.000   5.830   0.000   0.000   0.000  -0.000
  0.000   7.004   0.000   0.000   5.831   0.000   0.000  -0.000
  0.000   0.000   6.988   0.000   0.000   5.834  -0.000   0.000
 -0.000  -0.000   0.000   0.000   0.000  -0.000  -0.940  -0.000
  0.000   0.000  -0.000  -0.000  -0.000   0.000  -0.000  -0.957
 -0.000   0.000   0.000   0.000  -0.000  -0.000   0.000  -0.000
 -0.000  -0.000   0.000   0.000   0.000  -0.000  -0.000  -0.000
 -0.000  -0.000  -0.000   0.000   0.000   0.000  -0.000   0.000
 -0.000  -0.000   0.000   0.000   0.000  -0.000  -1.472  -0.000
  0.000   0.000  -0.000  -0.000  -0.000   0.000  -0.000  -1.489
 -0.000   0.000   0.000   0.000  -0.000  -0.000   0.000  -0.000
 -0.000  -0.000   0.000   0.000   0.000  -0.000  -0.000  -0.000
 -0.000  -0.000  -0.000   0.000   0.000   0.000  -0.000   0.000
 -0.000  -0.000   0.000  -0.000   0.000   0.000   0.000   0.000
 -0.000  -0.000   0.000  -0.000   0.000  -0.000   0.000   0.000
 total augmentation occupancy for first ion, spin component:           1
  1.992   0.000   0.000  -0.028   0.000  -0.000  -0.000  -0.000   0.000   0.000  -0.000   0.000   0.000   0.000   0.000  -0.000
  0.000   1.992   0.000   0.000  -0.028  -0.000   0.000   0.000  -0.000   0.000   0.000   0.000   0.000   0.000   0.000  -0.000
  0.000   0.000   1.992  -0.000   0.000  -0.027  -0.000  -0.000   0.000  -0.000   0.000   0.000  -0.000   0.000   0.000   0.000
 -0.028   0.000  -0.000   0.159  -0.000   0.000   0.000  -0.000  -0.000   0.000  -0.000   0.000   0.001   0.000   0.000   0.000
  0.000  -0.028   0.000  -0.000   0.159   0.000   0.000  -0.000  -0.000   0.000   0.000  -0.000   0.000   0.000  -0.000  -0.000
 -0.000  -0.000  -0.027   0.000   0.000   0.141  -0.000  -0.000   0.000  -0.000   0.000  -0.000  -0.000  -0.000   0.000  -0.000
 -0.000   0.000  -0.000   0.000   0.000  -0.000   2.960   0.000  -0.000  -0.000   0.000  -1.529  -0.000  -0.000  -0.000   0.000
 -0.000   0.000  -0.000  -0.000  -0.000  -0.000   0.000   3.210  -0.000   0.000   0.000  -0.000  -1.978   0.000   0.000   0.000
  0.000  -0.000   0.000  -0.000  -0.000   0.000  -0.000  -0.000   3.336   0.000   0.171   0.000   0.000  -1.821   0.000  -0.098
  0.000   0.000  -0.000   0.000   0.000  -0.000  -0.000   0.000   0.000   2.961  -0.000  -0.000   0.000   0.000  -1.529  -0.000
 -0.000   0.000   0.000  -0.000   0.000   0.000   0.000   0.000   0.171  -0.000   3.132  -0.000  -0.000  -0.098   0.000  -1.704
  0.000   0.000   0.000   0.000  -0.000  -0.000  -1.529  -0.000   0.000  -0.000  -0.000   1.503  -0.000   0.000   0.000  -0.000
  0.000   0.000  -0.000   0.001   0.000  -0.000  -0.000  -1.978   0.000   0.000  -0.000  -0.000   2.061  -0.000  -0.000   0.000
  0.000   0.000   0.000   0.000   0.000  -0.000  -0.000   0.000  -1.821   0.000  -0.098   0.000  -0.000   1.565   0.000   0.023
  0.000   0.000   0.000   0.000  -0.000   0.000  -0.000   0.000   0.000  -1.529   0.000   0.000  -0.000   0.000   1.503   0.000
 -0.000  -0.000   0.000   0.000  -0.000  -0.000   0.000   0.000  -0.098  -0.000  -1.704  -0.000   0.000   0.023   0.000   1.536
  0.000   0.000   0.000   0.000   0.000  -0.000   0.000   0.000  -0.094   0.000   0.162   0.000   0.000   0.065  -0.000  -0.110
  0.000  -0.000  -0.000   0.000  -0.000  -0.000  -0.000  -0.000   0.006   0.000  -0.010  -0.000   0.000  -0.003  -0.000   0.006
 total augmentation occupancy for first ion, spin component:           2
 -0.002   0.000   0.000  -0.010   0.000  -0.000   0.000   0.000   0.000  -0.000   0.000   0.000  -0.000  -0.000  -0.000  -0.000
  0.000  -0.002   0.000   0.000  -0.010  -0.000  -0.000   0.000  -0.000   0.000  -0.000   0.000   0.000   0.000   0.000   0.000
  0.000   0.000  -0.002   0.000   0.000  -0.010   0.000   0.000  -0.000  -0.000  -0.000   0.000   0.000   0.000   0.000   0.000
 -0.010   0.000   0.000  -0.005   0.000  -0.000   0.000  -0.000  -0.000   0.000   0.000  -0.000   0.000  -0.000  -0.000   0.000
  0.000  -0.010   0.000   0.000  -0.005   0.000  -0.000   0.000   0.000  -0.000   0.000  -0.000   0.000  -0.000   0.000  -0.000
 -0.000  -0.000  -0.010  -0.000   0.000  -0.012   0.000  -0.000   0.000   0.000  -0.000   0.000  -0.000  -0.000   0.000   0.000
  0.000  -0.000   0.000   0.000  -0.000   0.000   2.503   0.000   0.000  -0.000   0.000  -1.100  -0.000   0.000  -0.000   0.000
  0.000   0.000   0.000  -0.000   0.000  -0.000   0.000   2.549   0.000   0.000   0.000   0.000  -1.049   0.000   0.000   0.000
  0.000  -0.000  -0.000  -0.000   0.000   0.000   0.000   0.000   2.836   0.000   0.103  -0.000   0.000  -1.212   0.000  -0.094
 -0.000   0.000  -0.000   0.000  -0.000   0.000  -0.000   0.000   0.000   2.503  -0.000   0.000   0.000   0.000  -1.099  -0.000
  0.000  -0.000  -0.000   0.000   0.000  -0.000   0.000   0.000   0.103  -0.000   2.713   0.000   0.000  -0.094  -0.000  -1.100
  0.000   0.000   0.000  -0.000  -0.000   0.000  -1.100   0.000  -0.000   0.000   0.000   0.289   0.000   0.000   0.000   0.000
 -0.000   0.000   0.000   0.000   0.000  -0.000  -0.000  -1.049   0.000   0.000   0.000   0.000   0.192  -0.000  -0.000   0.000
 -0.000   0.000   0.000  -0.000  -0.000  -0.000   0.000   0.000  -1.212   0.000  -0.094   0.000  -0.000   0.391   0.000   0.107
 -0.000   0.000   0.000  -0.000   0.000   0.000  -0.000   0.000   0.000  -1.099  -0.000   0.000  -0.000   0.000   0.288   0.000
 -0.000   0.000   0.000   0.000  -0.000   0.000   0.000   0.000  -0.094  -0.000  -1.100   0.000   0.000   0.107   0.000   0.265
  0.000   0.000  -0.000   0.000   0.000   0.000  -0.000   0.000  -0.037   0.000   0.061   0.000   0.000   0.036   0.000  -0.060
  0.000  -0.000  -0.000  -0.000   0.000   0.000  -0.000   0.000   0.003  -0.000  -0.005   0.000   0.000  -0.000   0.000   0.001


------------------------ aborting loop because EDIFF is reached ----------------------------------------





 total charge

# of ion       s       p       d       tot
------------------------------------------
    1        0.326   6.282   5.978  12.586
    2        0.326   6.282   5.978  12.586
    3        0.326   6.282   5.978  12.586
    4        0.326   6.282   5.978  12.586
    5        0.326   6.282   5.978  12.586
    6        0.326   6.282   5.978  12.586
    7        0.326   6.282   5.978  12.586
    8        0.326   6.282   5.978  12.586
    9        0.326   6.282   5.978  12.586
   10        0.721   0.609   8.007   9.337
   11        0.722   0.610   8.007   9.339
   12        0.722   0.610   8.007   9.339
--------------------------------------------------
tot          5.098  58.368  77.823 141.289



 magnetization (x)

# of ion       s       p       d       tot
------------------------------------------
    1       -0.001  -0.017   2.868   2.850
    2       -0.001  -0.017   2.867   2.849
    3       -0.001  -0.017   2.868   2.850
    4       -0.000  -0.018   2.866   2.848
    5       -0.001  -0.017   2.866   2.848
    6       -0.001  -0.017   2.866   2.848
    7       -0.001  -0.017   2.868   2.850
    8       -0.001  -0.017   2.867   2.849
    9       -0.001  -0.017   2.868   2.850
   10       -0.042  -0.099   0.431   0.290
   11       -0.042  -0.099   0.432   0.291
   12       -0.042  -0.099   0.432   0.291
--------------------------------------------------
tot         -0.133  -0.452  27.098  26.513
 
    CHARGE:  cpu time      0.1750: real time      0.1762
    FORLOC:  cpu time      0.0011: real time      0.0011
    FORNL :  cpu time      0.7862: real time      0.7905
    STRESS:  cpu time      4.7881: real time      4.8256
    FORCOR:  cpu time      0.0241: real time      0.0244
    FORHAR:  cpu time      0.0031: real time      0.0031
    MIXING:  cpu time      0.0128: real time      0.0129
    OFIELD:  cpu time      0.0018: real time      0.0018

  FORCE on cell =-STRESS in cart. coord.  units (eV):
  Direction    XX          YY          ZZ          XY          YZ          ZX
  --------------------------------------------------------------------------------------
  Alpha Z  1007.04219  1007.04219  1007.04219
  Ewald   -5871.86619 -5871.86619 -5872.25400    -0.00000     0.00000    -0.00000
  Hartree  1963.10044  1963.10044  1963.00258    -0.00000    -0.00000    -0.00000
  E(xc)    -942.20594  -942.20594  -942.20574    -0.00000    -0.00000    -0.00000
  Local     938.25390   938.25390   938.64111    -0.00000     0.00000    -0.00000
  n-local  -228.59668  -243.71010  -236.28719    13.50916    -0.17665     0.16378
  augment  1440.94931  1440.94931  1441.05180    -0.00000    -0.00000     0.00000
  Kinetic  1691.09267  1685.53115  1688.19788     1.67278     0.30978     1.31534
  Fock        0.00000     0.00000     0.00000     0.00000     0.00000     0.00000
  -------------------------------------------------------------------------------------
  Total     -12.56777   -12.56777   -12.81138     0.00000     0.00000     0.00000
  in kB    -119.14671  -119.14671  -121.45619     0.00000     0.00000     0.00000
  external pressure =     -119.92 kB  Pullay stress =        0.00 kB


 VOLUME and BASIS-vectors are now :
 -----------------------------------------------------------------------------
  energy-cutoff  :      520.00
  volume of cell :      169.00
      direct lattice vectors                 reciprocal lattice vectors
     3.832998306  0.000000000  0.000000000     0.260892367  0.000000000  0.000000000
     0.000000000  3.832998306  0.000000000     0.000000000  0.260892367  0.000000000
     0.000000000  0.000000000 11.502955771     0.000000000  0.000000000  0.086934178

  length of vectors
     3.832998306  3.832998306 11.502955771     0.260892367  0.260892367  0.086934178


 FORCES acting on ions
    electron-ion (+dipol)            ewald-force                    non-local-force                 convergence-correction
 -----------------------------------------------------------------------------------------------
   -.919E-14 0.746E-12 0.229E+01   0.373E-14 -.140E-13 -.235E+01   -.479E-20 0.928E-20 -.106E-01   -.621E-13 -.526E-15 0.598E-01
   -.966E-14 0.660E-12 -.108E-12   0.571E-14 -.196E-13 -.171E-12   -.731E-25 0.852E-26 -.117E-24   -.575E-13 0.211E-14 0.183E-11
   -.944E-14 -.880E-12 -.229E+01   0.686E-14 0.250E-13 0.235E+01   -.431E-20 0.133E-20 0.106E-01   -.581E-13 0.589E-15 -.598E-01
   0.637E-12 0.758E-11 -.455E-11   -.103E-13 0.150E-13 0.455E-12   -.248E-25 -.112E-24 -.118E-23   0.174E-12 0.331E-13 -.142E-11
   0.646E-12 -.478E-11 0.240E+01   0.548E-13 -.331E-14 -.246E+01   0.284E-20 0.131E-20 -.826E-02   0.186E-12 0.328E-13 0.760E-01
   0.643E-12 -.468E-11 -.240E+01   -.444E-13 -.229E-13 0.246E+01   0.150E-20 -.219E-20 0.826E-02   0.181E-12 0.261E-13 -.760E-01
   0.643E-12 -.229E-13 0.229E+01   -.477E-13 -.197E-13 -.235E+01   -.457E-20 0.116E-19 -.106E-01   0.179E-12 0.300E-13 0.598E-01
   0.644E-12 -.558E-14 0.966E-11   -.294E-13 0.911E-14 -.171E-12   -.272E-25 0.164E-24 0.943E-25   0.186E-12 0.219E-13 0.185E-11
   0.638E-12 0.778E-14 -.229E+01   -.243E-13 -.281E-13 0.235E+01   0.148E-20 0.340E-20 0.106E-01   0.186E-12 0.316E-13 -.598E-01
   -.129E-14 -.107E-13 0.371E-12   0.277E-13 0.354E-14 0.114E-12   0.280E-24 0.540E-24 -.105E-24   -.252E-13 0.200E-13 -.106E-11
   -.139E-14 -.902E-14 0.144E+01   -.856E-14 0.682E-14 -.150E+01   0.400E-20 0.265E-20 0.903E-02   -.264E-13 0.203E-13 0.564E-01
   -.163E-14 -.145E-13 -.144E+01   0.574E-13 0.190E-14 0.150E+01   -.267E-20 0.280E-22 -.903E-02   -.271E-13 0.207E-13 -.564E-01
 -----------------------------------------------------------------------------------------------
   0.382E-11 -.141E-11 0.387E-11   -.838E-14 -.463E-13 0.171E-12   -.652E-20 0.274E-19 -.173E-17   0.837E-12 0.239E-12 -.193E-12
 
 
 POSITION                                       TOTAL-FORCE (eV/Angst)
 -----------------------------------------------------------------------------------
      0.00000      1.91650      1.91824        -0.000000      0.000000     -0.005652
      0.00000      1.91650      5.75148        -0.000000      0.000000      0.000000
      0.00000      1.91650      9.58472        -0.000000      0.000000      0.005652
      1.91650      1.91650      0.00000         0.000000     -0.000000     -0.000000
      1.91650      1.91650      3.83565         0.000000     -0.000000      0.004274
      1.91650      1.91650      7.66731        -0.000000     -0.000000     -0.004274
      1.91650      0.00000      1.91824         0.000000      0.000000     -0.005652
      1.91650      0.00000      5.75148        -0.000000      0.000000      0.000000
      1.91650      0.00000      9.58472        -0.000000      0.000000      0.005652
      0.00000      0.00000      0.00000        -0.000000      0.000000      0.000000
      0.00000      0.00000      3.83503        -0.000000      0.000000      0.006069
      0.00000      0.00000      7.66792        -0.000000      0.000000     -0.006069
 -----------------------------------------------------------------------------------
    total drift:                                0.000000     -0.000000      0.000000


--------------------------------------------------------------------------------------------------------



  FREE ENERGIE OF THE ION-ELECTRON SYSTEM (eV)
  ---------------------------------------------------
  free  energy   TOTEN  =       -93.03643916 eV

  energy  without entropy=      -93.03643916  energy(sigma->0) =      -93.03643916
 


--------------------------------------------------------------------------------------------------------


    POTLOK:  cpu time      0.0430: real time      0.0433


--------------------------------------------------------------------------------------------------------


     LOOP+:  cpu time    212.3879: real time    214.2510
 -----------------------------------------------------------------------------
|                                                                             |
|           W    W    AA    RRRRR   N    N  II  N    N   GGGG   !!!           |
|           W    W   A  A   R    R  NN   N  II  NN   N  G    G  !!!           |
|           W    W  A    A  R    R  N N  N  II  N N  N  G       !!!           |
|           W WW W  AAAAAA  RRRRR   N  N N  II  N  N N  G  GGG   !            |
|           WW  WW  A    A  R   R   N   NN  II  N   NN  G    G                |
|           W    W  A    A  R    R  N    N  II  N    N   GGGG   !!!           |
|                                                                             |
|     Tetrahedron method does not include variations of the Fermi             |
|     occupations, so forces and stress will be inaccurate. We suggest        |
|     using a different smearing scheme ISMEAR = 1 or 2 for metals in         |
|     relaxations.                                                            |
|                                                                             |
 -----------------------------------------------------------------------------

    4ORBIT:  cpu time      0.0000: real time      0.0000



 total charge

# of ion       s       p       d       tot
------------------------------------------
    1        0.326   6.282   5.978  12.586
    2        0.326   6.282   5.978  12.586
    3        0.326   6.282   5.978  12.586
    4        0.326   6.282   5.978  12.586
    5        0.326   6.282   5.978  12.586
    6        0.326   6.282   5.978  12.586
    7        0.326   6.282   5.978  12.586
    8        0.326   6.282   5.978  12.586
    9        0.326   6.282   5.978  12.586
   10        0.721   0.609   8.007   9.337
   11        0.722   0.610   8.007   9.339
   12        0.722   0.610   8.007   9.339
--------------------------------------------------
tot          5.098  58.368  77.823 141.289



 magnetization (x)

# of ion       s       p       d       tot
------------------------------------------
    1       -0.001  -0.017   2.868   2.850
    2       -0.001  -0.017   2.867   2.849
    3       -0.001  -0.017   2.868   2.850
    4       -0.000  -0.018   2.866   2.848
    5       -0.001  -0.017   2.866   2.848
    6       -0.001  -0.017   2.866   2.848
    7       -0.001  -0.017   2.868   2.850
    8       -0.001  -0.017   2.867   2.849
    9       -0.001  -0.017   2.868   2.850
   10       -0.042  -0.099   0.431   0.290
   11       -0.042  -0.099   0.432   0.291
   12       -0.042  -0.099   0.432   0.291
--------------------------------------------------
tot         -0.133  -0.452  27.098  26.513
 
 BZINTS: Fermi energy:    8.697244;  156.000000 electrons
         Band energy:-0.178260E+04;  BLOECHL correction:   -0.075269

 total amount of memory used by VASP MPI-rank0   202870. kBytes
=======================================================================

   base      :      30000. kBytes
   nonl-proj :     111581. kBytes
   fftplans  :       1055. kBytes
   grid      :       8252. kBytes
   one-center:        373. kBytes
   wavefun   :      51609. kBytes
 
  
  
 General timing and accounting informations for this job:
 ========================================================
  
                  Total CPU time used (sec):      232.452
                            User time (sec):      224.195
                          System time (sec):        8.257
                         Elapsed time (sec):      240.401
  
                   Maximum memory used (kb):      909436.
                   Average memory used (kb):          N/A
  
                          Minor page faults:       239832
                          Major page faults:          120
                 Voluntary context switches:         7606
