       N       E                     dE             d eps       ncg     rms          ort
DAV:   1     0.176109610917E+04    0.17611E+04   -0.91162E+04 10752   0.205E+03
DAV:   2     0.614244841578E+01   -0.17550E+04   -0.16646E+04 10752   0.486E+02
DAV:   3    -0.103044817089E+03   -0.10919E+03   -0.10790E+03 10752   0.130E+02
DAV:   4    -0.104521517194E+03   -0.14767E+01   -0.14764E+01 10752   0.152E+01
DAV:   5    -0.104547037151E+03   -0.25520E-01   -0.25519E-01 10752   0.195E+00
SDA:   6    -0.579036731039E+02    0.46643E+02   -0.25519E-01 10752   0.291E+03 0.000E+00
CGA:   7    -0.702408583335E+02   -0.12337E+02   -0.98212E+01 10752   0.196E+03 0.653E+02
CGA:   8    -0.845249081548E+02   -0.14284E+02   -0.11593E+02 10752   0.379E+02 0.542E+02
CGA:   9    -0.879342233041E+02   -0.34093E+01   -0.33913E+01 10752   0.266E+02 0.252E+00
CGA:  10    -0.887298259867E+02   -0.79560E+00   -0.62824E+00 10752   0.129E+02 0.702E+01
CGA:  11    -0.899976295490E+02   -0.12678E+01   -0.12141E+01 10752   0.281E+02 0.501E+00
CGA:  12    -0.905752924014E+02   -0.57766E+00   -0.39975E+00 10752   0.135E+02 0.132E+02
CGA:  13    -0.909757289618E+02   -0.40044E+00   -0.38579E+00 10752   0.104E+02 0.946E+00
CGA:  14    -0.913719367008E+02   -0.39621E+00   -0.39192E+00 10752   0.128E+02 0.196E+00
CGA:  15    -0.915738598763E+02   -0.20192E+00   -0.16317E+00 10752   0.542E+01 0.317E+01
CGA:  16    -0.916944988640E+02   -0.12064E+00   -0.11569E+00 10752   0.488E+01 0.284E+00
CGA:  17    -0.918565271707E+02   -0.16203E+00   -0.16005E+00 10752   0.952E+01 0.613E-01
CGA:  18    -0.920224679668E+02   -0.16594E+00   -0.16076E+00 10752   0.578E+01 0.362E+00
CGA:  19    -0.921079332985E+02   -0.85465E-01   -0.95956E-01 10752   0.423E+01-0.589E+00
CGA:  20    -0.921982326803E+02   -0.90299E-01   -0.98080E-01 10752   0.581E+01-0.248E+00
CGA:  21    -0.922839645071E+02   -0.85732E-01   -0.89972E-01 10752   0.215E+01-0.217E+00
CGA:  22    -0.923079461045E+02   -0.23982E-01   -0.24706E-01 10752   0.701E+00-0.539E-01
CGA:  23    -0.923220564469E+02   -0.14110E-01   -0.14173E-01 10752   0.872E+00-0.232E-02
CGA:  24    -0.923479877145E+02   -0.25931E-01   -0.26168E-01 10752   0.118E+01-0.615E-02
CGA:  25    -0.923680386562E+02   -0.20051E-01   -0.20665E-01 10752   0.690E+00-0.323E-01
CGA:  26    -0.923831346680E+02   -0.15096E-01   -0.15757E-01 10752   0.879E+00-0.246E-01
CGA:  27    -0.924059656917E+02   -0.22831E-01   -0.23627E-01 10752   0.831E+00-0.240E-01
CGA:  28    -0.924179021103E+02   -0.11936E-01   -0.12521E-01 10752   0.272E+00-0.359E-01
CGA:  29    -0.924231476490E+02   -0.52455E-02   -0.53149E-02 10752   0.272E+00-0.364E-02
CGA:  30    -0.924334605648E+02   -0.10313E-01   -0.10358E-01 10752   0.469E+00-0.128E-02
CGA:  31    -0.924431133176E+02   -0.96528E-02   -0.99905E-02 10752   0.231E+00-0.139E-01
CGA:  32    -0.924480530582E+02   -0.49397E-02   -0.50807E-02 10752   0.225E+00-0.518E-02
CGA:  33    -0.924566522101E+02   -0.85992E-02   -0.87049E-02 10752   0.330E+00-0.103E-02
CGA:  34    -0.924639268873E+02   -0.72747E-02   -0.74604E-02 10752   0.176E+00-0.595E-02
CGA:  35    -0.924692543013E+02   -0.53274E-02   -0.53712E-02 10752   0.242E+00-0.586E-03
CGA:  36    -0.924778868652E+02   -0.86326E-02   -0.87103E-02 10752   0.187E+00-0.403E-03
SDA:  37    -0.924810482557E+02   -0.31614E-02   -0.32561E-02 10752   0.483E-01-0.405E-02
CGA:  38    -0.924844880200E+02   -0.34398E-02   -0.34410E-02 10752   0.487E-01-0.940E-04
CGA:  39    -0.924875269098E+02   -0.30389E-02   -0.30389E-02 10752   0.695E-01-0.559E-04
CGA:  40    -0.924928122485E+02   -0.52853E-02   -0.52802E-02 10752   0.910E-02 0.235E-03
CGA:  41    -0.924934246387E+02   -0.61239E-03   -0.61192E-03 10752   0.188E-01 0.102E-03
CGA:  42    -0.924956406427E+02   -0.22160E-02   -0.21885E-02 10752   0.595E-02 0.524E-03
CGA:  43    -0.924967677467E+02   -0.11271E-02   -0.11195E-02 10752   0.109E-01 0.560E-04
CGA:  44    -0.924981708678E+02   -0.14031E-02   -0.14023E-02 10752   0.173E-01 0.170E-04
CGA:  45    -0.924988197179E+02   -0.64885E-03   -0.65759E-03 10752   0.728E-02-0.106E-03
CGA:  46    -0.924998458394E+02   -0.10261E-02   -0.10351E-02 10752   0.671E-02-0.128E-03
CGA:  47    -0.925002065984E+02   -0.36076E-03   -0.35975E-03 10752   0.572E-02-0.540E-04
CGA:  48    -0.925004410279E+02   -0.23443E-03   -0.23246E-03 10752   0.203E-02-0.542E-04
CGA:  49    -0.925009302827E+02   -0.48925E-03   -0.53630E-03 10752   0.425E-02-0.243E-03
CGA:  50    -0.925010177938E+02   -0.87511E-04   -0.85511E-04 10752   0.339E-03-0.484E-04
CGA:  51    -0.925010433813E+02   -0.25588E-04   -0.25579E-04 10752   0.780E-03-0.742E-06
CGA:  52    -0.925010940335E+02   -0.50652E-04   -0.50688E-04 10752   0.835E-03 0.473E-05
CGA:  53    -0.925011584215E+02   -0.64388E-04   -0.64435E-04 10752   0.671E-03 0.175E-04
CGA:  54    -0.925011749704E+02   -0.16549E-04   -0.16847E-04 10752   0.971E-04 0.513E-05
CGA:  55    -0.925011851269E+02   -0.10157E-04   -0.98994E-05 10752   0.225E-03 0.113E-04
CGA:  56    -0.925011964906E+02   -0.11364E-04   -0.11791E-04 10752   0.126E-03 0.137E-04
CGA:  57    -0.925012080023E+02   -0.11512E-04   -0.11390E-04 10752   0.459E-04 0.135E-04
CGA:  58    -0.925012115547E+02   -0.35524E-05   -0.35588E-05 10752   0.913E-04 0.174E-05
CGA:  59    -0.925012178527E+02   -0.62980E-05   -0.63079E-05 10752   0.318E-04 0.131E-05
CGA:  60    -0.925012198636E+02   -0.20108E-05   -0.20117E-05 10752   0.359E-04 0.723E-06
CGA:  61    -0.925012217817E+02   -0.19182E-05   -0.19254E-05 10752   0.327E-04 0.726E-06
CGA:  62    -0.925012256814E+02   -0.38997E-05   -0.38204E-05 10752   0.242E-04 0.242E-05
CGA:  63    -0.925012264293E+02   -0.74789E-06   -0.76510E-06 10752   0.997E-05 0.913E-06
CGA:  64    -0.925012283623E+02   -0.19330E-05   -0.18213E-05 10752   0.117E-04 0.162E-05
CGA:  65    -0.925012294698E+02   -0.11074E-05   -0.11052E-05 10752   0.692E-05 0.123E-05
CGA:  66    -0.925012297310E+02   -0.26126E-06   -0.27512E-06 10752   0.377E-05 0.738E-06
   1 F= -.92501230E+02 E0= -.92505209E+02  d E =-.925012E+02  mag=     7.7434
       N       E                     dE             d eps       ncg     rms          ort
SDA:   1    -0.925000213291E+02    0.12081E-02    0.00000E+00 10752   0.522E-02 0.000E+00
CGA:   2    -0.925003296893E+02   -0.30836E-03   -0.30837E-03 10752   0.576E-02-0.228E-05
CGA:   3    -0.925006869562E+02   -0.35727E-03   -0.35728E-03 10752   0.434E-02-0.642E-06
CGA:   4    -0.925010868659E+02   -0.39991E-03   -0.39996E-03 10752   0.719E-03-0.294E-05
CGA:   5    -0.925011877758E+02   -0.10091E-03   -0.10092E-03 10752   0.714E-03-0.134E-06
CGA:   6    -0.925012279773E+02   -0.40202E-04   -0.40212E-04 10752   0.680E-03 0.421E-06
CGA:   7    -0.925012520592E+02   -0.24082E-04   -0.24102E-04 10752   0.732E-04 0.278E-06
CGA:   8    -0.925012702869E+02   -0.18228E-04   -0.18246E-04 10752   0.556E-04-0.884E-07
CGA:   9    -0.925012735374E+02   -0.32505E-05   -0.32431E-05 10752   0.362E-04-0.254E-06
CGA:  10    -0.925012752978E+02   -0.17605E-05   -0.17570E-05 10752   0.288E-04-0.864E-07
CGA:  11    -0.925012783610E+02   -0.30632E-05   -0.30740E-05 10752   0.559E-05-0.428E-06
CGA:  12    -0.925012794111E+02   -0.10501E-05   -0.10314E-05 10752   0.457E-05 0.205E-06
CGA:  13    -0.925012796508E+02   -0.23970E-06   -0.24247E-06 10752   0.341E-05 0.861E-07
   2 F= -.92501280E+02 E0= -.92505258E+02  d E =-.499198E-04  mag=     7.7439
