       N       E                     dE             d eps       ncg     rms          ort
DAV:   1     0.175719215014E+04    0.17572E+04   -0.91456E+04 10752   0.205E+03
DAV:   2     0.590744851629E+01   -0.17513E+04   -0.16614E+04 10752   0.486E+02
DAV:   3    -0.102926273467E+03   -0.10883E+03   -0.10755E+03 10752   0.130E+02
DAV:   4    -0.104399579957E+03   -0.14733E+01   -0.14730E+01 10752   0.152E+01
DAV:   5    -0.104424987545E+03   -0.25408E-01   -0.25407E-01 10752   0.195E+00
SDA:   6    -0.576992935548E+02    0.46726E+02   -0.25407E-01 10752   0.313E+03 0.000E+00
CGA:   7    -0.697049231512E+02   -0.12006E+02   -0.93703E+01 10752   0.176E+03 0.786E+02
CGA:   8    -0.850073825624E+02   -0.15302E+02   -0.13324E+02 10752   0.452E+02 0.296E+02
CGA:   9    -0.877128299849E+02   -0.27054E+01   -0.28413E+01 10752   0.380E+02-0.173E+01
CGA:  10    -0.886488435992E+02   -0.93601E+00   -0.72302E+00 10752   0.127E+02 0.108E+02
CGA:  11    -0.893031664484E+02   -0.65432E+00   -0.60247E+00 10752   0.242E+02 0.126E+01
CGA:  12    -0.905660931253E+02   -0.12629E+01   -0.10091E+01 10752   0.286E+02 0.657E+01
CGA:  13    -0.910943602385E+02   -0.52827E+00   -0.35972E+00 10752   0.936E+01 0.174E+02
CGA:  14    -0.913306481709E+02   -0.23629E+00   -0.26785E+00 10752   0.450E+01-0.952E+00
CGA:  15    -0.915741092599E+02   -0.24346E+00   -0.25132E+00 10752   0.355E+01-0.765E-01
CGA:  16    -0.921301336778E+02   -0.55602E+00   -0.55508E+00 10752   0.152E+01 0.331E-01
CGA:  17    -0.922175097021E+02   -0.87376E-01   -0.89036E-01 10752   0.213E+01-0.164E-01
CGA:  18    -0.923354631413E+02   -0.11795E+00   -0.12320E+00 10752   0.123E+01-0.551E-01
CGA:  19    -0.924326564207E+02   -0.97193E-01   -0.97195E-01 10752   0.164E+00 0.497E-03
CGA:  20    -0.924466432461E+02   -0.13987E-01   -0.14065E-01 10752   0.286E+00 0.361E-03
CGA:  21    -0.924573764423E+02   -0.10733E-01   -0.10855E-01 10752   0.864E-01-0.198E-02
CGA:  22    -0.924637608354E+02   -0.63844E-02   -0.64018E-02 10752   0.475E-01 0.174E-03
CGA:  23    -0.924684385487E+02   -0.46777E-02   -0.46975E-02 10752   0.153E+00 0.367E-03
CGA:  24    -0.924797576626E+02   -0.11319E-01   -0.11321E-01 10752   0.342E-01 0.260E-03
CGA:  25    -0.924833799632E+02   -0.36223E-02   -0.36287E-02 10752   0.442E-01 0.191E-03
CGA:  26    -0.924874072613E+02   -0.40273E-02   -0.40177E-02 10752   0.104E+00-0.177E-03
CGA:  27    -0.924937978893E+02   -0.63906E-02   -0.65195E-02 10752   0.142E-01-0.104E-02
CGA:  28    -0.924950192200E+02   -0.12213E-02   -0.12231E-02 10752   0.260E-01-0.142E-05
CGA:  29    -0.924963192164E+02   -0.13000E-02   -0.13080E-02 10752   0.166E-01-0.103E-03
CGA:  30    -0.924978562278E+02   -0.15370E-02   -0.15379E-02 10752   0.568E-02 0.260E-04
CGA:  31    -0.924989100215E+02   -0.10538E-02   -0.10508E-02 10752   0.111E-01 0.365E-04
CGA:  32    -0.924992606543E+02   -0.35063E-03   -0.35022E-03 10752   0.330E-02 0.141E-04
CGA:  33    -0.924995930978E+02   -0.33244E-03   -0.33233E-03 10752   0.373E-02-0.901E-05
CGA:  34    -0.925000046809E+02   -0.41158E-03   -0.41164E-03 10752   0.918E-02-0.186E-04
CGA:  35    -0.925003867385E+02   -0.38206E-03   -0.38127E-03 10752   0.105E-02-0.455E-04
CGA:  36    -0.925006032135E+02   -0.21648E-03   -0.22443E-03 10752   0.183E-02-0.710E-04
CGA:  37    -0.925007243831E+02   -0.12117E-03   -0.11977E-03 10752   0.120E-02-0.360E-04
CGA:  38    -0.925007606466E+02   -0.36263E-04   -0.35773E-04 10752   0.371E-03-0.469E-05
CGA:  39    -0.925008316149E+02   -0.70968E-04   -0.69324E-04 10752   0.371E-03 0.206E-04
CGA:  40    -0.925008439136E+02   -0.12299E-04   -0.12721E-04 10752   0.160E-03 0.644E-05
CGA:  41    -0.925008624644E+02   -0.18551E-04   -0.18417E-04 10752   0.130E-03 0.166E-04
CGA:  42    -0.925008760162E+02   -0.13552E-04   -0.13683E-04 10752   0.919E-04 0.143E-04
CGA:  43    -0.925008795386E+02   -0.35224E-05   -0.38196E-05 10752   0.627E-04 0.508E-05
SDA:  44    -0.925008882878E+02   -0.87492E-05   -0.84329E-05 10752   0.499E-04 0.126E-04
CGA:  45    -0.925008900558E+02   -0.17680E-05   -0.17542E-05 10752   0.263E-04 0.353E-06
CGA:  46    -0.925008916727E+02   -0.16169E-05   -0.16037E-05 10752   0.202E-04 0.174E-06
CGA:  47    -0.925008956340E+02   -0.39614E-05   -0.41385E-05 10752   0.745E-04-0.119E-05
CGA:  48    -0.925008981135E+02   -0.24795E-05   -0.24238E-05 10752   0.208E-04-0.939E-06
CGA:  49    -0.925009003276E+02   -0.22141E-05   -0.22173E-05 10752   0.223E-04-0.598E-07
CGA:  50    -0.925009015671E+02   -0.12395E-05   -0.12567E-05 10752   0.291E-04 0.689E-06
CGA:  51    -0.925009031733E+02   -0.16061E-05   -0.16636E-05 10752   0.935E-05 0.139E-05
CGA:  52    -0.925009042564E+02   -0.10831E-05   -0.10541E-05 10752   0.206E-04 0.263E-05
CGA:  53    -0.925009053736E+02   -0.11173E-05   -0.12482E-05 10752   0.299E-05 0.293E-05
CGA:  54    -0.925009055133E+02   -0.13970E-06   -0.15258E-06 10752   0.187E-05 0.509E-06
   1 F= -.92500906E+02 E0= -.92504884E+02  d E =-.925009E+02  mag=     7.7415
       N       E                     dE             d eps       ncg     rms          ort
SDA:   1    -0.924926879941E+02    0.82174E-02    0.00000E+00 10752   0.299E-01 0.000E+00
CGA:   2    -0.924942729671E+02   -0.15850E-02   -0.15843E-02 10752   0.424E-01 0.253E-05
CGA:   3    -0.924974797699E+02   -0.32068E-02   -0.32067E-02 10752   0.265E-01-0.332E-05
CGA:   4    -0.924997455620E+02   -0.22658E-02   -0.22658E-02 10752   0.558E-02 0.972E-05
CGA:   5    -0.925004609135E+02   -0.71535E-03   -0.71518E-03 10752   0.563E-02 0.355E-05
CGA:   6    -0.925007691444E+02   -0.30823E-03   -0.30825E-03 10752   0.417E-02 0.140E-05
CGA:   7    -0.925009311781E+02   -0.16203E-03   -0.16195E-03 10752   0.521E-03-0.671E-06
CGA:   8    -0.925010601434E+02   -0.12897E-03   -0.12923E-03 10752   0.820E-03-0.163E-05
CGA:   9    -0.925010800481E+02   -0.19905E-04   -0.19903E-04 10752   0.174E-03 0.692E-08
CGA:  10    -0.925011110342E+02   -0.30986E-04   -0.30869E-04 10752   0.121E-03 0.138E-05
CGA:  11    -0.925011210327E+02   -0.99986E-05   -0.10004E-04 10752   0.471E-04 0.477E-06
CGA:  12    -0.925011276468E+02   -0.66140E-05   -0.66028E-05 10752   0.589E-04 0.225E-06
CGA:  13    -0.925011295933E+02   -0.19465E-05   -0.19387E-05 10752   0.168E-04-0.128E-06
CGA:  14    -0.925011307574E+02   -0.11640E-05   -0.11603E-05 10752   0.642E-05-0.139E-06
CGA:  15    -0.925011321501E+02   -0.13928E-05   -0.14449E-05 10752   0.280E-05-0.410E-06
CGA:  16    -0.925011322521E+02   -0.10197E-06   -0.10495E-06 10752   0.235E-05 0.419E-07
   2 F= -.92501132E+02 E0= -.92505096E+02  d E =-.226739E-03  mag=     7.7339
       N       E                     dE             d eps       ncg     rms          ort
SDA:   1    -0.924971485287E+02    0.39836E-02    0.00000E+00 10752   0.139E-01 0.000E+00
CGA:   2    -0.924981427472E+02   -0.99422E-03   -0.99416E-03 10752   0.212E-01-0.230E-05
CGA:   3    -0.924992221335E+02   -0.10794E-02   -0.10790E-02 10752   0.143E-01 0.495E-05
CGA:   4    -0.925004954133E+02   -0.12733E-02   -0.12733E-02 10752   0.351E-02 0.494E-05
CGA:   5    -0.925007100196E+02   -0.21461E-03   -0.21465E-03 10752   0.407E-02-0.258E-06
CGA:   6    -0.925009393877E+02   -0.22937E-03   -0.22942E-03 10752   0.187E-02 0.172E-05
CGA:   7    -0.925010874423E+02   -0.14805E-03   -0.14805E-03 10752   0.239E-03-0.286E-06
CGA:   8    -0.925011303384E+02   -0.42896E-04   -0.42915E-04 10752   0.811E-03-0.230E-06
CGA:   9    -0.925011559410E+02   -0.25603E-04   -0.25588E-04 10752   0.984E-04-0.406E-06
CGA:  10    -0.925011652950E+02   -0.93540E-05   -0.93516E-05 10752   0.124E-03 0.356E-06
CGA:  11    -0.925011714390E+02   -0.61440E-05   -0.61647E-05 10752   0.918E-04 0.519E-06
CGA:  12    -0.925011770085E+02   -0.55695E-05   -0.55747E-05 10752   0.179E-04 0.234E-06
CGA:  13    -0.925011801033E+02   -0.30948E-05   -0.30903E-05 10752   0.131E-04 0.590E-07
CGA:  14    -0.925011808231E+02   -0.71980E-06   -0.71444E-06 10752   0.985E-05-0.112E-06
   3 F= -.92501181E+02 E0= -.92505133E+02  d E =-.275310E-03  mag=     7.7300
       N       E                     dE             d eps       ncg     rms          ort
SDA:   1    -0.925008259664E+02    0.35414E-03    0.00000E+00 10752   0.332E-02 0.000E+00
CGA:   2    -0.925009160271E+02   -0.90061E-04   -0.90044E-04 10752   0.123E-02 0.937E-06
CGA:   3    -0.925010026851E+02   -0.86658E-04   -0.86662E-04 10752   0.767E-03 0.321E-06
CGA:   4    -0.925011270275E+02   -0.12434E-03   -0.12420E-03 10752   0.336E-03 0.181E-05
CGA:   5    -0.925011473015E+02   -0.20274E-04   -0.20289E-04 10752   0.251E-03 0.561E-06
CGA:   6    -0.925011587609E+02   -0.11459E-04   -0.11455E-04 10752   0.148E-03-0.131E-06
CGA:   7    -0.925011731126E+02   -0.14352E-04   -0.14353E-04 10752   0.215E-04-0.560E-07
CGA:   8    -0.925011752426E+02   -0.21301E-05   -0.21317E-05 10752   0.616E-04-0.126E-06
CGA:   9    -0.925011783242E+02   -0.30816E-05   -0.30758E-05 10752   0.838E-05-0.199E-06
CGA:  10    -0.925011792115E+02   -0.88730E-06   -0.88522E-06 10752   0.976E-05 0.139E-06
   4 F= -.92501179E+02 E0= -.92505125E+02  d E =-.273698E-03  mag=     7.7283
       N       E                     dE             d eps       ncg     rms          ort
SDA:   1    -0.924897115042E+02    0.11467E-01    0.00000E+00 10752   0.730E-01 0.000E+00
CGA:   2    -0.924918586075E+02   -0.21471E-02   -0.21518E-02 10752   0.348E-01-0.129E-03
CGA:   3    -0.924979368077E+02   -0.60782E-02   -0.60797E-02 10752   0.325E-01-0.173E-04
CGA:   4    -0.924990617968E+02   -0.11250E-02   -0.11253E-02 10752   0.157E-01-0.303E-05
CGA:   5    -0.924999359831E+02   -0.87419E-03   -0.87446E-03 10752   0.704E-02 0.497E-06
CGA:   6    -0.925008927400E+02   -0.95676E-03   -0.95654E-03 10752   0.237E-02 0.403E-05
CGA:   7    -0.925009978344E+02   -0.10509E-03   -0.10506E-03 10752   0.149E-02-0.457E-06
CGA:   8    -0.925010690309E+02   -0.71197E-04   -0.71193E-04 10752   0.683E-03 0.149E-06
CGA:   9    -0.925011594796E+02   -0.90449E-04   -0.90460E-04 10752   0.916E-03-0.188E-06
CGA:  10    -0.925011830492E+02   -0.23570E-04   -0.23562E-04 10752   0.100E-03-0.498E-06
CGA:  11    -0.925012046258E+02   -0.21577E-04   -0.21454E-04 10752   0.950E-04 0.932E-06
CGA:  12    -0.925012099805E+02   -0.53546E-05   -0.53561E-05 10752   0.708E-04 0.805E-07
CGA:  13    -0.925012130629E+02   -0.30824E-05   -0.30917E-05 10752   0.375E-04 0.226E-06
CGA:  14    -0.925012169269E+02   -0.38640E-05   -0.38602E-05 10752   0.220E-04 0.182E-06
CGA:  15    -0.925012175733E+02   -0.64639E-06   -0.64387E-06 10752   0.757E-05-0.332E-07
CGA:  16    -0.925012185724E+02   -0.99915E-06   -0.10067E-05 10752   0.690E-05-0.140E-06
   5 F= -.92501219E+02 E0= -.92505174E+02  d E =-.393610E-04  mag=     7.7347
