       N       E                     dE             d eps       ncg     rms          rms(c)
DAV:   1     0.175678287686E+04    0.17568E+04   -0.83758E+04 43296   0.185E+03
DAV:   2     0.549532345125E+01   -0.17513E+04   -0.16617E+04 43008   0.486E+02
DAV:   3    -0.103057332081E+03   -0.10855E+03   -0.10729E+03 50496   0.129E+02
DAV:   4    -0.104525258510E+03   -0.14679E+01   -0.14677E+01 45600   0.152E+01
DAV:   5    -0.104550687916E+03   -0.25429E-01   -0.25429E-01 53408   0.195E+00    0.439E+01
DAV:   6    -0.103781736610E+03    0.76895E+00   -0.10838E+02 50272   0.578E+01    0.478E+01
DAV:   7    -0.123969729247E+03   -0.20188E+02   -0.43778E+02 53440   0.700E+01    0.719E+01
DAV:   8    -0.976616094475E+02    0.26308E+02   -0.11236E+02 51808   0.484E+01    0.324E+01
DAV:   9    -0.106140938525E+03   -0.84793E+01   -0.18271E+02 52704   0.388E+01    0.500E+01
DAV:  10    -0.941679107031E+02    0.11973E+02   -0.70704E+01 51808   0.235E+01    0.253E+01
DAV:  11    -0.921218808259E+02    0.20460E+01   -0.29755E+01 53024   0.158E+01    0.132E+01
DAV:  12    -0.922542280734E+02   -0.13235E+00   -0.74461E+00 52896   0.101E+01    0.102E+01
DAV:  13    -0.921758268802E+02    0.78401E-01   -0.52458E+00 51488   0.715E+00    0.823E+00
DAV:  14    -0.921204546203E+02    0.55372E-01   -0.20101E+00 54368   0.454E+00    0.673E+00
DAV:  15    -0.921253326461E+02   -0.48780E-02   -0.62032E-01 51616   0.309E+00    0.604E+00
DAV:  16    -0.921438961585E+02   -0.18564E-01   -0.10345E-01 52256   0.139E+00    0.539E+00
DAV:  17    -0.922118775988E+02   -0.67981E-01   -0.17689E-01 53184   0.122E+00    0.510E+00
DAV:  18    -0.923874187680E+02   -0.17554E+00   -0.85286E-01 52128   0.247E+00    0.485E+00
DAV:  19    -0.924972353141E+02   -0.10982E+00   -0.16440E+00 52864   0.468E+00    0.215E+00
DAV:  20    -0.924989043211E+02   -0.16690E-02   -0.19378E-01 50752   0.174E+00    0.103E+00
DAV:  21    -0.925040640925E+02   -0.51598E-02   -0.51560E-02 51648   0.103E+00    0.725E-01
DAV:  22    -0.925059018904E+02   -0.18378E-02   -0.15896E-02 51584   0.459E-01    0.500E-01
DAV:  23    -0.925065671908E+02   -0.66530E-03   -0.63910E-03 51616   0.384E-01    0.297E-01
DAV:  24    -0.925065085263E+02    0.58664E-04   -0.15906E-03 52544   0.172E-01    0.193E-01
DAV:  25    -0.925064662175E+02    0.42309E-04   -0.50081E-04 51648   0.943E-02    0.932E-02
DAV:  26    -0.925065168013E+02   -0.50584E-04   -0.24812E-04 52288   0.592E-02    0.569E-02
DAV:  27    -0.925065383419E+02   -0.21541E-04   -0.57802E-05 51360   0.402E-02    0.333E-02
DAV:  28    -0.925065329545E+02    0.53874E-05   -0.35824E-05 52512   0.231E-02    0.197E-02
DAV:  29    -0.925065351774E+02   -0.22229E-05   -0.43402E-06 44608   0.118E-02    0.165E-02
DAV:  30    -0.925065251279E+02    0.10050E-04   -0.22311E-05 46400   0.218E-02    0.638E-03
DAV:  31    -0.925065284195E+02   -0.32916E-05   -0.13487E-06 28640   0.532E-03    0.315E-03
DAV:  32    -0.925065285892E+02   -0.16972E-06   -0.17295E-07 26240   0.190E-03
   1 F= -.92506529E+02 E0= -.92506529E+02  d E =0.000000E+00  mag=     7.7592
