 vasp.6.4.3 19Mar24 (build Mar 26 2024 14:05:37) complex                        
  
 executed on             LinuxIFC date 2024.12.17  01:25:14
 running  128 mpi-ranks, on    1 nodes
 distrk:  each k-point on   32 cores,    4 groups
 distr:  one band on NCORE=   1 cores,   32 groups


--------------------------------------------------------------------------------------------------------


 INCAR:
   ALGO = Normal
   EDIFF = 1e-06
   EDIFFG = -0.01
   ENCUT = 520
   GGA = Pe
   IBRION = -1
   ISIF = 4
   ISMEAR = -5
   ISPIN = 2
   KPAR = 4
   LCHARG = True
   LORBIT = 11
   LREAL = False
   LWAVE = False
   MAGMOM = 1*-2.01 1*2.316 1*2.2 1*-2.049 1*2.168 1*2.365 1*-2.01 1*2.316 1*2.2 1*-0.035 1*0.065 1*0.218
   NELM = 200
   NSW = 0
   PREC = Accurate
   SIGMA = 0.2

 POTCAR:    PAW_PBE Fe_pv 02Aug2007               
 POTCAR:    PAW_PBE Pt 04Feb2005                  
 -----------------------------------------------------------------------------
|                                                                             |
|           W    W    AA    RRRRR   N    N  II  N    N   GGGG   !!!           |
|           W    W   A  A   R    R  NN   N  II  NN   N  G    G  !!!           |
|           W    W  A    A  R    R  N N  N  II  N N  N  G       !!!           |
|           W WW W  AAAAAA  RRRRR   N  N N  II  N  N N  G  GGG   !            |
|           WW  WW  A    A  R   R   N   NN  II  N   NN  G    G                |
|           W    W  A    A  R    R  N    N  II  N    N   GGGG   !!!           |
|                                                                             |
|     For optimal performance we recommend to set                             |
|       NCORE = 2 up to number-of-cores-per-socket                            |
|     NCORE specifies how many cores store one orbital (NPAR=cpu/NCORE).      |
|     This setting can greatly improve the performance of VASP for DFT.       |
|     The default, NCORE=1 might be grossly inefficient on modern             |
|     multi-core architectures or massively parallel machines. Do your        |
|     own testing! More info at https://www.vasp.at/wiki/index.php/NCORE      |
|     Unfortunately you need to use the default for GW and RPA                |
|     calculations (for HF NCORE is supported but not extensively tested      |
|     yet).                                                                   |
|                                                                             |
 -----------------------------------------------------------------------------

 POTCAR:    PAW_PBE Fe_pv 02Aug2007               
   SHA256 =  5d22e414b1f82158bf2c7ecb8b97b28fd0923e48cadc1c3bf74d524558f5dd32 Fe_pv/POTCAR          
   COPYR  = (c) Copyright 02Aug2007 Georg Kresse                                                    
   COPYR  = This file is part of the software VASP. Any use, copying, and all other rights are regul
   COPYR  = If you do not have a valid VASP license, you may not use, copy or distribute this file. 
   VRHFIN =Fe:  3pd7s1                                                                              
   LEXCH  = PE                                                                                      
   EATOM  =  2457.4239 eV,  180.6156 Ry                                                             
                                                                                                    
   TITEL  = PAW_PBE Fe_pv 02Aug2007                                                                 
   LULTRA =        F    use ultrasoft PP ?                                                          
   IUNSCR =        1    unscreen: 0-lin 1-nonlin 2-no                                               
   RPACOR =    1.750    partial core radius                                                         
   POMASS =   55.847; ZVAL   =   14.000    mass and valenz                                          
   RCORE  =    2.200    outmost cutoff radius                                                       
   RWIGS  =    2.200; RWIGS  =    1.164    wigner-seitz radius (au A)                               
   ENMAX  =  293.238; ENMIN  =  219.928 eV                                                          
   ICORE  =        3    local potential                                                             
   LCOR   =        T    correct aug charges                                                         
   LPAW   =        T    paw PP                                                                      
   EAUG   =  578.342                                                                                
   DEXC   =    0.000                                                                                
   RMAX   =    2.249    core radius for proj-oper                                                   
   RAUG   =    1.300    factor for augmentation sphere                                              
   RDEP   =    2.296    radius for radial grids                                                     
   RDEPT  =    1.766    core radius for aug-charge                                                  
                                                                                                    
   Atomic configuration                                                                             
    8 entries                                                                                       
     n  l   j            E        occ.                                                              
     1  0  0.50     -6993.8440   2.0000                                                             
     2  0  0.50      -814.6047   2.0000                                                             
     2  1  1.50      -693.3689   6.0000                                                             
     3  0  0.50       -89.4732   2.0000                                                             
     3  1  1.50       -55.6373   6.0000                                                             
     3  2  2.50        -3.8151   7.0000                                                             
     4  0  0.50        -4.2551   1.0000                                                             
     4  3  2.50        -1.3606   0.0000                                                             
   Description                                                                                      
     l       E           TYP  RCUT    TYP  RCUT                                                     
     1    -55.6372668     23  2.000                                                                 
     1     -5.4423304     23  2.000                                                                 
     2     -3.8151096     23  2.200                                                                 
     2     -5.1756922     23  2.200                                                                 
     0     -4.2550951     23  2.200                                                                 
     0     27.2116520     23  2.200                                                                 
     3     -1.3605826     23  2.200                                                                 
  local pseudopotential read in
  partial core-charges read in
  partial kinetic energy density read in
  atomic valenz-charges read in
  non local Contribution for L=           1  read in
    real space projection operators read in
  non local Contribution for L=           1  read in
    real space projection operators read in
  non local Contribution for L=           2  read in
    real space projection operators read in
  non local Contribution for L=           2  read in
    real space projection operators read in
  non local Contribution for L=           0  read in
    real space projection operators read in
  non local Contribution for L=           0  read in
    real space projection operators read in
    PAW grid and wavefunctions read in
 
   number of l-projection  operators is LMAX  =           6
   number of lm-projection operators is LMMAX =          18
 
 POTCAR:    PAW_PBE Pt 04Feb2005                  
   SHA256 =  3ed90460adef76debcff1cfb73ee1349b515b1a3db03439735b44de3a8db7dc8 Pt/POTCAR             
   COPYR  = (c) Copyright 04Feb2005 Georg Kresse                                                    
   COPYR  = This file is part of the software VASP. Any use, copying, and all other rights are regul
   COPYR  = If you do not have a valid VASP license, you may not use, copy or distribute this file. 
   VRHFIN =Pt: s1d9                                                                                 
   LEXCH  = PE                                                                                      
   EATOM  =   729.1176 eV,   53.5886 Ry                                                             
                                                                                                    
   TITEL  = PAW_PBE Pt 04Feb2005                                                                    
   LULTRA =        F    use ultrasoft PP ?                                                          
   IUNSCR =        1    unscreen: 0-lin 1-nonlin 2-no                                               
   RPACOR =    2.330    partial core radius                                                         
   POMASS =  195.080; ZVAL   =   10.000    mass and valenz                                          
   RCORE  =    2.600    outmost cutoff radius                                                       
   RWIGS  =    2.750; RWIGS  =    1.455    wigner-seitz radius (au A)                               
   ENMAX  =  230.283; ENMIN  =  172.712 eV                                                          
   ICORE  =        3    local potential                                                             
   LCOR   =        T    correct aug charges                                                         
   LPAW   =        T    paw PP                                                                      
   EAUG   =  358.966                                                                                
   DEXC   =    0.000                                                                                
   RMAX   =    2.658    core radius for proj-oper                                                   
   RAUG   =    1.300    factor for augmentation sphere                                              
   RDEP   =    2.761    radius for radial grids                                                     
   RDEPT  =    2.203    core radius for aug-charge                                                  
                                                                                                    
   Atomic configuration                                                                             
   16 entries                                                                                       
     n  l   j            E        occ.                                                              
     1  0  0.50    -78401.1885   2.0000                                                             
     2  0  0.50    -13770.7750   2.0000                                                             
     2  1  1.50    -11931.0468   6.0000                                                             
     3  0  0.50     -3234.7234   2.0000                                                             
     3  1  1.50     -2699.2216   6.0000                                                             
     3  2  2.50     -2119.5714  10.0000                                                             
     4  0  0.50      -695.1528   2.0000                                                             
     4  1  1.50      -519.6034   6.0000                                                             
     4  2  2.50      -306.6786  10.0000                                                             
     4  3  3.50       -70.1041  14.0000                                                             
     5  0  0.50      -101.7747   2.0000                                                             
     5  1  1.50       -55.9873   6.0000                                                             
     5  2  2.50        -6.1423   9.0000                                                             
     6  0  0.50        -5.6573   1.0000                                                             
     6  1  1.50        -6.8029   0.0000                                                             
     5  3  2.50        -1.3606   0.0000                                                             
   Description                                                                                      
     l       E           TYP  RCUT    TYP  RCUT                                                     
     2     -6.1423404     23  2.500                                                                 
     2     -7.5029230     23  2.500                                                                 
     0     -5.6573207     23  2.500                                                                 
     0      0.7416693     23  2.500                                                                 
     1     -2.7211652     23  2.600                                                                 
     1     20.4087390     23  2.600                                                                 
     3     -1.3605826     23  2.500                                                                 
  local pseudopotential read in
  partial core-charges read in
  partial kinetic energy density read in
  atomic valenz-charges read in
  non local Contribution for L=           2  read in
    real space projection operators read in
  non local Contribution for L=           2  read in
    real space projection operators read in
  non local Contribution for L=           0  read in
    real space projection operators read in
  non local Contribution for L=           0  read in
    real space projection operators read in
  non local Contribution for L=           1  read in
    real space projection operators read in
  non local Contribution for L=           1  read in
    real space projection operators read in
    PAW grid and wavefunctions read in
 
   number of l-projection  operators is LMAX  =           6
   number of lm-projection operators is LMMAX =          18
 
  PAW_PBE Fe_pv 02Aug2007               :
 energy of atom  1       EATOM=-2457.4239
 kinetic energy error for atom=    0.0062 (will be added to EATOM!!)
  PAW_PBE Pt 04Feb2005                  :
 energy of atom  2       EATOM= -729.1176
 kinetic energy error for atom=    0.0032 (will be added to EATOM!!)
 
 
 POSCAR: Fe9 Pt3
  positions in direct lattice
  velocities in cartesian coordinates


 exchange-correlation table for PE
   RHO(1)=    0.500       N(1)  =     2000
   RHO(2)=  100.500       N(2)  =     4000
 


--------------------------------------------------------------------------------------------------------


 ion  position               nearest neighbor table
   1  0.000  0.500  0.166-   4 2.52   4 2.52  11 2.52  11 2.52   7 2.53   7 2.53   7 2.53   7 2.53
                             5 2.54   5 2.54  10 2.55  10 2.55
   2  0.000  0.500  0.499-   8 2.53   8 2.53   8 2.53   8 2.53   6 2.54   6 2.54   5 2.54   5 2.54
                            12 2.55  12 2.55  11 2.56  11 2.56
   3  0.000  0.500  0.835-  10 2.53  10 2.53   9 2.53   9 2.53   9 2.53   9 2.53  12 2.55  12 2.55
                             4 2.56   4 2.56   6 2.57   6 2.57
   4  0.500  0.500  0.003-   1 2.52   7 2.52   7 2.52   1 2.52  10 2.53  10 2.53  10 2.53  10 2.53
                             9 2.56   3 2.56   9 2.56   3 2.56
   5  0.500  0.500  0.333-  11 2.53  11 2.53  11 2.53  11 2.53   8 2.54   2 2.54   2 2.54   8 2.54
                             1 2.54   7 2.54   1 2.54   7 2.54
   6  0.500  0.500  0.665-  12 2.53  12 2.53  12 2.53  12 2.53   8 2.54   2 2.54   2 2.54   8 2.54
                             9 2.57   3 2.57   9 2.57   3 2.57
   7  0.500  0.000  0.166-   4 2.52   4 2.52  11 2.52  11 2.52   1 2.53   1 2.53   1 2.53   1 2.53
                             5 2.54   5 2.54  10 2.55  10 2.55
   8  0.500  0.000  0.499-   2 2.53   2 2.53   2 2.53   2 2.53   6 2.54   6 2.54   5 2.54   5 2.54
                            12 2.55  12 2.55  11 2.56  11 2.56
   9  0.500  0.000  0.835-  10 2.53  10 2.53   3 2.53   3 2.53   3 2.53   3 2.53  12 2.55  12 2.55
                             4 2.56   4 2.56   6 2.57   6 2.57
  10  0.000  0.000  0.999-   3 2.53   9 2.53   3 2.53   9 2.53   4 2.53   4 2.53   4 2.53   4 2.53
                             1 2.55   7 2.55   7 2.55   1 2.55
  11  0.000  0.000  0.331-   1 2.52   7 2.52   1 2.52   7 2.52   5 2.53   5 2.53   5 2.53   5 2.53
                             2 2.56   2 2.56   8 2.56   8 2.56
  12  0.000  0.000  0.667-   6 2.53   6 2.53   6 2.53   6 2.53   3 2.55   9 2.55   9 2.55   3 2.55
                             2 2.55   8 2.55   8 2.55   2 2.55
 
  LATTYP: Found a simple tetragonal cell.
 ALAT       =     3.5824243606
 C/A-ratio  =     3.0233171794
  
  Lattice vectors:
  
 A1 = (   3.5824243606,   0.0000000000,   0.0000000000)
 A2 = (   0.0000000000,   3.5824243606,   0.0000000000)
 A3 = (   0.0000000000,   0.0000000000,  10.8308051133)


Analysis of symmetry for initial positions (statically):
=====================================================================
 Subroutine PRICEL returns:
 Original cell was already a primitive cell.
 

 Routine SETGRP: Setting up the symmetry group for a 
 simple tetragonal supercell.


 Subroutine GETGRP returns: Found  8 space group operations
 (whereof  8 operations were pure point group operations)
 out of a pool of 16 trial point group operations.


The static configuration has the point symmetry C_4v.


Analysis of symmetry for dynamics (positions and initial velocities):
=====================================================================
 Subroutine PRICEL returns:
 Original cell was already a primitive cell.
 

 Routine SETGRP: Setting up the symmetry group for a 
 simple tetragonal supercell.


 Subroutine GETGRP returns: Found  8 space group operations
 (whereof  8 operations were pure point group operations)
 out of a pool of 16 trial point group operations.


The dynamic configuration has the point symmetry C_4v.


Analysis of structural, dynamic, and magnetic symmetry:
=====================================================================
 Subroutine PRICEL returns:
 Original cell was already a primitive cell.
 

 Routine SETGRP: Setting up the symmetry group for a 
 simple tetragonal supercell.


 Subroutine GETGRP returns: Found  8 space group operations
 (whereof  8 operations were pure point group operations)
 out of a pool of 16 trial point group operations.


The overall configuration has the point symmetry C_4v.


 Subroutine INISYM returns: Found  8 space group operations
 (whereof  8 operations are pure point group operations),
 and found     1 'primitive' translations


----------------------------------------------------------------------------------------

                                     Primitive cell                                     

  volume of cell :     139.0000

  direct lattice vectors                    reciprocal lattice vectors
     3.582424361  0.000000000  0.000000000     0.279140576  0.000000000  0.000000000
     0.000000000  3.582424361  0.000000000     0.000000000  0.279140576  0.000000000
     0.000000000  0.000000000 10.830805113     0.000000000  0.000000000  0.092329240

  length of vectors
     3.582424361  3.582424361 10.830805113     0.279140576  0.279140576  0.092329240

  position of ions in fractional coordinates (direct lattice)
     0.000000000  0.500000000  0.166433313
     0.000000000  0.500000000  0.499252260
     0.000000000  0.500000000  0.834877836
     0.500000000  0.500000000  0.003253841
     0.500000000  0.500000000  0.333189576
     0.500000000  0.500000000  0.665295733
     0.500000000  0.000000000  0.166433313
     0.500000000  0.000000000  0.499252260
     0.500000000  0.000000000  0.834877836
     0.000000000  0.000000000  0.999303347
     0.000000000  0.000000000  0.330595449
     0.000000000  0.000000000  0.667235234

  ion indices of the primitive-cell ions
   primitive index   ion index
                 1           1
                 2           2
                 3           3
                 4           4
                 5           5
                 6           6
                 7           7
                 8           8
                 9           9
                10          10
                11          11
                12          12

----------------------------------------------------------------------------------------

 
 
 KPOINTS: pymatgen with grid density = 8800 / numb

Automatic generation of k-mesh.
 Grid dimensions read from file:
 generate k-points for:   13   13    4

 Generating k-lattice:

  Cartesian coordinates                     Fractional coordinates (reciprocal lattice)
     0.021472352  0.000000000  0.000000000     0.076923077  0.000000000  0.000000000
     0.000000000  0.021472352  0.000000000     0.000000000  0.076923077  0.000000000
     0.000000000  0.000000000  0.023082310     0.000000000  0.000000000  0.250000000

  Length of vectors
     0.021472352  0.021472352  0.023082310

  Shift w.r.t. Gamma in fractional coordinates (k-lattice)
     0.000000000  0.000000000  0.000000000

 TETIRR: Found   1010 inequivalent tetrahedra from     4056
 
 Subroutine IBZKPT returns following result:
 ===========================================
 
 Found     84 irreducible k-points:
 
 Following reciprocal coordinates:
            Coordinates               Weight
  0.000000  0.000000  0.000000      1.000000
  0.076923  0.000000  0.000000      4.000000
  0.153846  0.000000  0.000000      4.000000
  0.230769  0.000000  0.000000      4.000000
  0.307692  0.000000  0.000000      4.000000
  0.384615  0.000000  0.000000      4.000000
  0.461538  0.000000  0.000000      4.000000
  0.076923  0.076923  0.000000      4.000000
  0.153846  0.076923  0.000000      8.000000
  0.230769  0.076923  0.000000      8.000000
  0.307692  0.076923  0.000000      8.000000
  0.384615  0.076923  0.000000      8.000000
  0.461538  0.076923  0.000000      8.000000
  0.153846  0.153846  0.000000      4.000000
  0.230769  0.153846  0.000000      8.000000
  0.307692  0.153846  0.000000      8.000000
  0.384615  0.153846  0.000000      8.000000
  0.461538  0.153846  0.000000      8.000000
  0.230769  0.230769  0.000000      4.000000
  0.307692  0.230769  0.000000      8.000000
  0.384615  0.230769  0.000000      8.000000
  0.461538  0.230769  0.000000      8.000000
  0.307692  0.307692  0.000000      4.000000
  0.384615  0.307692  0.000000      8.000000
  0.461538  0.307692  0.000000      8.000000
  0.384615  0.384615  0.000000      4.000000
  0.461538  0.384615  0.000000      8.000000
  0.461538  0.461538  0.000000      4.000000
  0.000000  0.000000  0.250000      2.000000
  0.076923  0.000000  0.250000      8.000000
  0.153846  0.000000  0.250000      8.000000
  0.230769  0.000000  0.250000      8.000000
  0.307692  0.000000  0.250000      8.000000
  0.384615  0.000000  0.250000      8.000000
  0.461538  0.000000  0.250000      8.000000
  0.076923  0.076923  0.250000      8.000000
  0.153846  0.076923  0.250000     16.000000
  0.230769  0.076923  0.250000     16.000000
  0.307692  0.076923  0.250000     16.000000
  0.384615  0.076923  0.250000     16.000000
  0.461538  0.076923  0.250000     16.000000
  0.153846  0.153846  0.250000      8.000000
  0.230769  0.153846  0.250000     16.000000
  0.307692  0.153846  0.250000     16.000000
  0.384615  0.153846  0.250000     16.000000
  0.461538  0.153846  0.250000     16.000000
  0.230769  0.230769  0.250000      8.000000
  0.307692  0.230769  0.250000     16.000000
  0.384615  0.230769  0.250000     16.000000
  0.461538  0.230769  0.250000     16.000000
  0.307692  0.307692  0.250000      8.000000
  0.384615  0.307692  0.250000     16.000000
  0.461538  0.307692  0.250000     16.000000
  0.384615  0.384615  0.250000      8.000000
  0.461538  0.384615  0.250000     16.000000
  0.461538  0.461538  0.250000      8.000000
  0.000000  0.000000  0.500000      1.000000
  0.076923  0.000000  0.500000      4.000000
  0.153846  0.000000  0.500000      4.000000
  0.230769  0.000000  0.500000      4.000000
  0.307692  0.000000  0.500000      4.000000
  0.384615  0.000000  0.500000      4.000000
  0.461538  0.000000  0.500000      4.000000
  0.076923  0.076923  0.500000      4.000000
  0.153846  0.076923  0.500000      8.000000
  0.230769  0.076923  0.500000      8.000000
  0.307692  0.076923  0.500000      8.000000
  0.384615  0.076923  0.500000      8.000000
  0.461538  0.076923  0.500000      8.000000
  0.153846  0.153846  0.500000      4.000000
  0.230769  0.153846  0.500000      8.000000
  0.307692  0.153846  0.500000      8.000000
  0.384615  0.153846  0.500000      8.000000
  0.461538  0.153846  0.500000      8.000000
  0.230769  0.230769  0.500000      4.000000
  0.307692  0.230769  0.500000      8.000000
  0.384615  0.230769  0.500000      8.000000
  0.461538  0.230769  0.500000      8.000000
  0.307692  0.307692  0.500000      4.000000
  0.384615  0.307692  0.500000      8.000000
  0.461538  0.307692  0.500000      8.000000
  0.384615  0.384615  0.500000      4.000000
  0.461538  0.384615  0.500000      8.000000
  0.461538  0.461538  0.500000      4.000000
 
 Following cartesian coordinates:
            Coordinates               Weight
  0.000000  0.000000  0.000000      1.000000
  0.021472  0.000000  0.000000      4.000000
  0.042945  0.000000  0.000000      4.000000
  0.064417  0.000000  0.000000      4.000000
  0.085889  0.000000  0.000000      4.000000
  0.107362  0.000000  0.000000      4.000000
  0.128834  0.000000  0.000000      4.000000
  0.021472  0.021472  0.000000      4.000000
  0.042945  0.021472  0.000000      8.000000
  0.064417  0.021472  0.000000      8.000000
  0.085889  0.021472  0.000000      8.000000
  0.107362  0.021472  0.000000      8.000000
  0.128834  0.021472  0.000000      8.000000
  0.042945  0.042945  0.000000      4.000000
  0.064417  0.042945  0.000000      8.000000
  0.085889  0.042945  0.000000      8.000000
  0.107362  0.042945  0.000000      8.000000
  0.128834  0.042945  0.000000      8.000000
  0.064417  0.064417  0.000000      4.000000
  0.085889  0.064417  0.000000      8.000000
  0.107362  0.064417  0.000000      8.000000
  0.128834  0.064417  0.000000      8.000000
  0.085889  0.085889  0.000000      4.000000
  0.107362  0.085889  0.000000      8.000000
  0.128834  0.085889  0.000000      8.000000
  0.107362  0.107362  0.000000      4.000000
  0.128834  0.107362  0.000000      8.000000
  0.128834  0.128834  0.000000      4.000000
  0.000000  0.000000  0.023082      2.000000
  0.021472  0.000000  0.023082      8.000000
  0.042945  0.000000  0.023082      8.000000
  0.064417  0.000000  0.023082      8.000000
  0.085889  0.000000  0.023082      8.000000
  0.107362  0.000000  0.023082      8.000000
  0.128834  0.000000  0.023082      8.000000
  0.021472  0.021472  0.023082      8.000000
  0.042945  0.021472  0.023082     16.000000
  0.064417  0.021472  0.023082     16.000000
  0.085889  0.021472  0.023082     16.000000
  0.107362  0.021472  0.023082     16.000000
  0.128834  0.021472  0.023082     16.000000
  0.042945  0.042945  0.023082      8.000000
  0.064417  0.042945  0.023082     16.000000
  0.085889  0.042945  0.023082     16.000000
  0.107362  0.042945  0.023082     16.000000
  0.128834  0.042945  0.023082     16.000000
  0.064417  0.064417  0.023082      8.000000
  0.085889  0.064417  0.023082     16.000000
  0.107362  0.064417  0.023082     16.000000
  0.128834  0.064417  0.023082     16.000000
  0.085889  0.085889  0.023082      8.000000
  0.107362  0.085889  0.023082     16.000000
  0.128834  0.085889  0.023082     16.000000
  0.107362  0.107362  0.023082      8.000000
  0.128834  0.107362  0.023082     16.000000
  0.128834  0.128834  0.023082      8.000000
  0.000000  0.000000  0.046165      1.000000
  0.021472  0.000000  0.046165      4.000000
  0.042945  0.000000  0.046165      4.000000
  0.064417  0.000000  0.046165      4.000000
  0.085889  0.000000  0.046165      4.000000
  0.107362  0.000000  0.046165      4.000000
  0.128834  0.000000  0.046165      4.000000
  0.021472  0.021472  0.046165      4.000000
  0.042945  0.021472  0.046165      8.000000
  0.064417  0.021472  0.046165      8.000000
  0.085889  0.021472  0.046165      8.000000
  0.107362  0.021472  0.046165      8.000000
  0.128834  0.021472  0.046165      8.000000
  0.042945  0.042945  0.046165      4.000000
  0.064417  0.042945  0.046165      8.000000
  0.085889  0.042945  0.046165      8.000000
  0.107362  0.042945  0.046165      8.000000
  0.128834  0.042945  0.046165      8.000000
  0.064417  0.064417  0.046165      4.000000
  0.085889  0.064417  0.046165      8.000000
  0.107362  0.064417  0.046165      8.000000
  0.128834  0.064417  0.046165      8.000000
  0.085889  0.085889  0.046165      4.000000
  0.107362  0.085889  0.046165      8.000000
  0.128834  0.085889  0.046165      8.000000
  0.107362  0.107362  0.046165      4.000000
  0.128834  0.107362  0.046165      8.000000
  0.128834  0.128834  0.046165      4.000000
 


--------------------------------------------------------------------------------------------------------




 Dimension of arrays:
   k-points           NKPTS =     84   k-points in BZ     NKDIM =     84   number of bands    NBANDS=    128
   number of dos      NEDOS =    301   number of ions     NIONS =     12
   non local maximal  LDIM  =      6   non local SUM 2l+1 LMDIM =     18
   total plane-waves  NPLWV =  65856
   max r-space proj   IRMAX =      1   max aug-charges    IRDMAX=  28892
   dimension x,y,z NGX =    28 NGY =   28 NGZ =   84
   dimension x,y,z NGXF=    56 NGYF=   56 NGZF=  168
   support grid    NGXF=    56 NGYF=   56 NGZF=  168
   ions per type =               9   3
   NGX,Y,Z   is equivalent  to a cutoff of  12.99, 12.99, 12.89 a.u.
   NGXF,Y,Z  is equivalent  to a cutoff of  25.99, 25.99, 25.79 a.u.

 SYSTEM =  unknown system                          
 POSCAR =  Fe9 Pt3                                 

 Startparameter for this run:
   NWRITE =      2    write-flag & timer
   PREC   = accura    normal or accurate (medium, high low for compatibility)
   ISTART =      0    job   : 0-new  1-cont  2-samecut
   ICHARG =      2    charge: 1-file 2-atom 10-const
   ISPIN  =      2    spin polarized calculation?
   LNONCOLLINEAR =      F non collinear calculations
   LSORBIT =      F    spin-orbit coupling
   INIWAV =      1    electr: 0-lowe 1-rand  2-diag
   LASPH  =      F    aspherical Exc in radial PAW
 Electronic Relaxation 1
   ENCUT  =  520.0 eV  38.22 Ry    6.18 a.u.   6.66  6.66 20.14*2*pi/ulx,y,z
   ENINI  =  520.0     initial cutoff
   ENAUG  =  578.3 eV  augmentation charge cutoff
   NELM   =    200;   NELMIN=  2; NELMDL=  0     # of ELM steps 
   EDIFF  = 0.1E-05   stopping-criterion for ELM
   LREAL  =      F    real-space projection
   NLSPLINE    = F    spline interpolate recip. space projectors
   LCOMPAT=      F    compatible to vasp.4.4
   GGA_COMPAT  = T    GGA compatible to vasp.4.4-vasp.4.6
   LMAXPAW     = -100 max onsite density
   LMAXMIX     =    2 max onsite mixed and CHGCAR
   VOSKOWN=      0    Vosko Wilk Nusair interpolation
   ROPT   =    0.00000   0.00000
 Ionic relaxation
   EDIFFG = -.1E-01   stopping-criterion for IOM
   NSW    =      0    number of steps for IOM
   NBLOCK =      1;   KBLOCK =      1    inner block; outer block 
   IBRION =     -1    ionic relax: 0-MD 1-quasi-New 2-CG
   NFREE  =      0    steps in history (QN), initial steepest desc. (CG)
   ISIF   =      4    stress and relaxation
   IWAVPR =     10    prediction:  0-non 1-charg 2-wave 3-comb
   ISYM   =      2    0-nonsym 1-usesym 2-fastsym
   LCORR  =      T    Harris-Foulkes like correction to forces

   POTIM  = 0.5000    time-step for ionic-motion
   TEIN   =    0.0    initial temperature
   TEBEG  =    0.0;   TEEND  =   0.0 temperature during run
   SMASS  =  -3.00    Nose mass-parameter (am)
   estimated Nose-frequenzy (Omega)   =  0.10E-29 period in steps = 0.13E+47 mass=  -0.293E-27a.u.
   SCALEE = 1.0000    scale energy and forces
   NPACO  =    256;   APACO  = 10.0  distance and # of slots for P.C.
   PSTRESS=    0.0 pullay stress

  Mass of Ions in am
   POMASS =  55.85195.08
  Ionic Valenz
   ZVAL   =  14.00 10.00
  Atomic Wigner-Seitz radii
   RWIGS  =  -1.00 -1.00
  virtual crystal weights 
   VCA    =   1.00  1.00
   NELECT =     156.0000    total number of electrons
   NUPDOWN=      -1.0000    fix difference up-down

 DOS related values:
   EMIN   =  10.00;   EMAX   =-10.00  energy-range for DOS
   EFERMI =   0.00;   METHOD = LEGACY      
   ISMEAR =    -5;   SIGMA  =   0.20  broadening in eV -4-tet -1-fermi 0-gaus

 Electronic relaxation 2 (details)
   IALGO  =     38    algorithm
   LDIAG  =      T    sub-space diagonalisation (order eigenvalues)
   LSUBROT=      F    optimize rotation matrix (better conditioning)
   TURBO    =      0    0=normal 1=particle mesh
   IRESTART =      0    0=no restart 2=restart with 2 vectors
   NREBOOT  =      0    no. of reboots
   NMIN     =      0    reboot dimension
   EREF     =   0.00    reference energy to select bands
   IMIX   =      4    mixing-type and parameters
     AMIX     =   0.40;   BMIX     =  1.00
     AMIX_MAG =   1.60;   BMIX_MAG =  1.00
     AMIN     =   0.10
     WC   =   100.;   INIMIX=   1;  MIXPRE=   1;  MAXMIX= -45

 Intra band minimization:
   WEIMIN = 0.0000     energy-eigenvalue tresh-hold
   EBREAK =  0.20E-08  absolut break condition
   DEPER  =   0.30     relativ break condition  

   TIME   =   0.40     timestep for ELM

  volume/ion in A,a.u.               =      11.58        78.17
  Fermi-wavevector in a.u.,A,eV,Ry     =   1.701289  3.214970 39.380489  2.894384
  Thomas-Fermi vector in A             =   2.781269
 
 Write flags
   LWAVE        =      F    write WAVECAR
   LDOWNSAMPLE  =      F    k-point downsampling of WAVECAR
   LCHARG       =      T    write CHGCAR
   LVTOT        =      F    write LOCPOT, total local potential
   LVHAR        =      F    write LOCPOT, Hartree potential only
   WRT_POTENTIAL= false  ! write potential to hdf5 file
   LELF         =      F    write electronic localiz. function (ELF)
   LORBIT       =     11    0 simple, 1 ext, 2 COOP (PROOUT), +10 PAW based schemes


 Dipole corrections
   LMONO      =      F    monopole corrections only (constant potential shift)
   LDIPOL     =      F    correct potential (dipole corrections)
   IDIPOL     =      0    1-x, 2-y, 3-z, 4-all directions 
   EPSILON    =  1.0000000 bulk dielectric constant
   LVACPOTAV  =      F  vacuum potentials using an averaging scheme for the charge density
   VACPOTFLAT =  0.1000000 required flatness to determine vacuum potential
 Exchange correlation treatment:
   GGA     = PE    functional components
   XC_C    = 1    coefficients multiplying the functional components
   LIBXC   =     F    Libxc                    
   VOSKOWN =     0    Vosko Wilk Nusair interpolation
   LHFCALC =     F    Hartree Fock is set to
   LHFONE  =     F    Hartree Fock one center treatment
   AEXX    =    0.0000 exact exchange contribution

 Parameters of functionals:
   PE:
     No parameter
 
 Van der Waals corrections
   IVDW    =     0    specifies the selected vdW correction

 Linear response parameters
   LEPSILON=     F    determine dielectric tensor
   LRPA    =     F    only Hartree local field effects (RPA)
   LNABLA  =     F    use nabla operator in PAW spheres
   LVEL    =     F    velocity operator in full k-point grid
   CSHIFT  =0.1000    complex shift for real part using Kramers Kronig
   OMEGAMAX=  -1.0    maximum frequency
   DEG_THRESHOLD= 0.2000000E-02 threshold for treating states as degnerate
   RTIME   =   -0.100 relaxation time in fs
  (WPLASMAI=    0.000 imaginary part of plasma frequency in eV, 0.658/RTIME)
   DFIELD  = 0.0000000 0.0000000 0.0000000 field for delta impulse in time
 
  Optional k-point grid parameters
   LKPOINTS_OPT  =     F    use optional k-point grid
   KPOINTS_OPT_MODE=     1    mode for optional k-point grid
 
 Orbital magnetization related:
   ORBITALMAG=     F  switch on orbital magnetization
   LCHIMAG   =     F  perturbation theory with respect to B field
   DQ        =  0.001000  dq finite difference perturbation B field
   LLRAUG    =     F  two centre corrections for induced B field
   LBONE     =     F  B-component reconstruction in AE one-centre
   LVGVCALC  =     T  calculate vGv susceptibility
   LVGVAPPL  =     F  apply vGv susceptibility instead of pGv for G=0

 Random number generation:
   RANDOM_GENERATOR = DEFAULT
   PCG_SEED         = not used


--------------------------------------------------------------------------------------------------------


 Static calculation
 charge density and potential will be updated during run
 spin polarized calculation
 Variant of blocked Davidson
 Davidson routine will perform the subspace rotation
 perform sub-space diagonalisation
    after iterative eigenvector-optimisation
 modified Broyden-mixing scheme, WC =      100.0
 initial mixing is a Kerker type mixing with AMIX =  0.4000 and BMIX =      1.0000
 Hartree-type preconditioning will be used
 using additional bands           50
 reciprocal scheme for non local part
 use partial core corrections
 calculate Harris-corrections to forces 
   (improved forces if not selfconsistent)
 use gradient corrections 
 use of overlap-Matrix (Vanderbilt PP)
 Fermi weights with tetrahedron method with Bloechl corrections


--------------------------------------------------------------------------------------------------------


  energy-cutoff  :      520.00
  volume of cell :      139.00
      direct lattice vectors                 reciprocal lattice vectors
     3.582424361  0.000000000  0.000000000     0.279140576  0.000000000  0.000000000
     0.000000000  3.582424361  0.000000000     0.000000000  0.279140576  0.000000000
     0.000000000  0.000000000 10.830805113     0.000000000  0.000000000  0.092329240

  length of vectors
     3.582424361  3.582424361 10.830805113     0.279140576  0.279140576  0.092329240


 
 k-points in units of 2pi/SCALE and weight: pymatgen with grid density = 8800 / numb
   0.00000000  0.00000000  0.00000000       0.001
   0.02147235  0.00000000  0.00000000       0.006
   0.04294470  0.00000000  0.00000000       0.006
   0.06441706  0.00000000  0.00000000       0.006
   0.08588941  0.00000000  0.00000000       0.006
   0.10736176  0.00000000  0.00000000       0.006
   0.12883411  0.00000000  0.00000000       0.006
   0.02147235  0.02147235  0.00000000       0.006
   0.04294470  0.02147235  0.00000000       0.012
   0.06441706  0.02147235  0.00000000       0.012
   0.08588941  0.02147235  0.00000000       0.012
   0.10736176  0.02147235  0.00000000       0.012
   0.12883411  0.02147235  0.00000000       0.012
   0.04294470  0.04294470  0.00000000       0.006
   0.06441706  0.04294470  0.00000000       0.012
   0.08588941  0.04294470  0.00000000       0.012
   0.10736176  0.04294470  0.00000000       0.012
   0.12883411  0.04294470  0.00000000       0.012
   0.06441706  0.06441706  0.00000000       0.006
   0.08588941  0.06441706  0.00000000       0.012
   0.10736176  0.06441706  0.00000000       0.012
   0.12883411  0.06441706  0.00000000       0.012
   0.08588941  0.08588941  0.00000000       0.006
   0.10736176  0.08588941  0.00000000       0.012
   0.12883411  0.08588941  0.00000000       0.012
   0.10736176  0.10736176  0.00000000       0.006
   0.12883411  0.10736176  0.00000000       0.012
   0.12883411  0.12883411  0.00000000       0.006
   0.00000000  0.00000000  0.02308231       0.003
   0.02147235  0.00000000  0.02308231       0.012
   0.04294470  0.00000000  0.02308231       0.012
   0.06441706  0.00000000  0.02308231       0.012
   0.08588941  0.00000000  0.02308231       0.012
   0.10736176  0.00000000  0.02308231       0.012
   0.12883411  0.00000000  0.02308231       0.012
   0.02147235  0.02147235  0.02308231       0.012
   0.04294470  0.02147235  0.02308231       0.024
   0.06441706  0.02147235  0.02308231       0.024
   0.08588941  0.02147235  0.02308231       0.024
   0.10736176  0.02147235  0.02308231       0.024
   0.12883411  0.02147235  0.02308231       0.024
   0.04294470  0.04294470  0.02308231       0.012
   0.06441706  0.04294470  0.02308231       0.024
   0.08588941  0.04294470  0.02308231       0.024
   0.10736176  0.04294470  0.02308231       0.024
   0.12883411  0.04294470  0.02308231       0.024
   0.06441706  0.06441706  0.02308231       0.012
   0.08588941  0.06441706  0.02308231       0.024
   0.10736176  0.06441706  0.02308231       0.024
   0.12883411  0.06441706  0.02308231       0.024
   0.08588941  0.08588941  0.02308231       0.012
   0.10736176  0.08588941  0.02308231       0.024
   0.12883411  0.08588941  0.02308231       0.024
   0.10736176  0.10736176  0.02308231       0.012
   0.12883411  0.10736176  0.02308231       0.024
   0.12883411  0.12883411  0.02308231       0.012
   0.00000000  0.00000000  0.04616462       0.001
   0.02147235  0.00000000  0.04616462       0.006
   0.04294470  0.00000000  0.04616462       0.006
   0.06441706  0.00000000  0.04616462       0.006
   0.08588941  0.00000000  0.04616462       0.006
   0.10736176  0.00000000  0.04616462       0.006
   0.12883411  0.00000000  0.04616462       0.006
   0.02147235  0.02147235  0.04616462       0.006
   0.04294470  0.02147235  0.04616462       0.012
   0.06441706  0.02147235  0.04616462       0.012
   0.08588941  0.02147235  0.04616462       0.012
   0.10736176  0.02147235  0.04616462       0.012
   0.12883411  0.02147235  0.04616462       0.012
   0.04294470  0.04294470  0.04616462       0.006
   0.06441706  0.04294470  0.04616462       0.012
   0.08588941  0.04294470  0.04616462       0.012
   0.10736176  0.04294470  0.04616462       0.012
   0.12883411  0.04294470  0.04616462       0.012
   0.06441706  0.06441706  0.04616462       0.006
   0.08588941  0.06441706  0.04616462       0.012
   0.10736176  0.06441706  0.04616462       0.012
   0.12883411  0.06441706  0.04616462       0.012
   0.08588941  0.08588941  0.04616462       0.006
   0.10736176  0.08588941  0.04616462       0.012
   0.12883411  0.08588941  0.04616462       0.012
   0.10736176  0.10736176  0.04616462       0.006
   0.12883411  0.10736176  0.04616462       0.012
   0.12883411  0.12883411  0.04616462       0.006
 
 k-points in reciprocal lattice and weights: pymatgen with grid density = 8800 / numb
   0.00000000  0.00000000  0.00000000       0.001
   0.07692308  0.00000000  0.00000000       0.006
   0.15384615  0.00000000  0.00000000       0.006
   0.23076923  0.00000000  0.00000000       0.006
   0.30769231  0.00000000  0.00000000       0.006
   0.38461538  0.00000000  0.00000000       0.006
   0.46153846  0.00000000  0.00000000       0.006
   0.07692308  0.07692308  0.00000000       0.006
   0.15384615  0.07692308  0.00000000       0.012
   0.23076923  0.07692308  0.00000000       0.012
   0.30769231  0.07692308  0.00000000       0.012
   0.38461538  0.07692308  0.00000000       0.012
   0.46153846  0.07692308  0.00000000       0.012
   0.15384615  0.15384615  0.00000000       0.006
   0.23076923  0.15384615  0.00000000       0.012
   0.30769231  0.15384615  0.00000000       0.012
   0.38461538  0.15384615  0.00000000       0.012
   0.46153846  0.15384615  0.00000000       0.012
   0.23076923  0.23076923  0.00000000       0.006
   0.30769231  0.23076923  0.00000000       0.012
   0.38461538  0.23076923  0.00000000       0.012
   0.46153846  0.23076923  0.00000000       0.012
   0.30769231  0.30769231  0.00000000       0.006
   0.38461538  0.30769231  0.00000000       0.012
   0.46153846  0.30769231  0.00000000       0.012
   0.38461538  0.38461538  0.00000000       0.006
   0.46153846  0.38461538  0.00000000       0.012
   0.46153846  0.46153846  0.00000000       0.006
   0.00000000  0.00000000  0.25000000       0.003
   0.07692308  0.00000000  0.25000000       0.012
   0.15384615  0.00000000  0.25000000       0.012
   0.23076923  0.00000000  0.25000000       0.012
   0.30769231  0.00000000  0.25000000       0.012
   0.38461538  0.00000000  0.25000000       0.012
   0.46153846  0.00000000  0.25000000       0.012
   0.07692308  0.07692308  0.25000000       0.012
   0.15384615  0.07692308  0.25000000       0.024
   0.23076923  0.07692308  0.25000000       0.024
   0.30769231  0.07692308  0.25000000       0.024
   0.38461538  0.07692308  0.25000000       0.024
   0.46153846  0.07692308  0.25000000       0.024
   0.15384615  0.15384615  0.25000000       0.012
   0.23076923  0.15384615  0.25000000       0.024
   0.30769231  0.15384615  0.25000000       0.024
   0.38461538  0.15384615  0.25000000       0.024
   0.46153846  0.15384615  0.25000000       0.024
   0.23076923  0.23076923  0.25000000       0.012
   0.30769231  0.23076923  0.25000000       0.024
   0.38461538  0.23076923  0.25000000       0.024
   0.46153846  0.23076923  0.25000000       0.024
   0.30769231  0.30769231  0.25000000       0.012
   0.38461538  0.30769231  0.25000000       0.024
   0.46153846  0.30769231  0.25000000       0.024
   0.38461538  0.38461538  0.25000000       0.012
   0.46153846  0.38461538  0.25000000       0.024
   0.46153846  0.46153846  0.25000000       0.012
   0.00000000  0.00000000  0.50000000       0.001
   0.07692308  0.00000000  0.50000000       0.006
   0.15384615  0.00000000  0.50000000       0.006
   0.23076923  0.00000000  0.50000000       0.006
   0.30769231  0.00000000  0.50000000       0.006
   0.38461538  0.00000000  0.50000000       0.006
   0.46153846  0.00000000  0.50000000       0.006
   0.07692308  0.07692308  0.50000000       0.006
   0.15384615  0.07692308  0.50000000       0.012
   0.23076923  0.07692308  0.50000000       0.012
   0.30769231  0.07692308  0.50000000       0.012
   0.38461538  0.07692308  0.50000000       0.012
   0.46153846  0.07692308  0.50000000       0.012
   0.15384615  0.15384615  0.50000000       0.006
   0.23076923  0.15384615  0.50000000       0.012
   0.30769231  0.15384615  0.50000000       0.012
   0.38461538  0.15384615  0.50000000       0.012
   0.46153846  0.15384615  0.50000000       0.012
   0.23076923  0.23076923  0.50000000       0.006
   0.30769231  0.23076923  0.50000000       0.012
   0.38461538  0.23076923  0.50000000       0.012
   0.46153846  0.23076923  0.50000000       0.012
   0.30769231  0.30769231  0.50000000       0.006
   0.38461538  0.30769231  0.50000000       0.012
   0.46153846  0.30769231  0.50000000       0.012
   0.38461538  0.38461538  0.50000000       0.006
   0.46153846  0.38461538  0.50000000       0.012
   0.46153846  0.46153846  0.50000000       0.006
 
 position of ions in fractional coordinates (direct lattice) 
   0.00000000  0.50000000  0.16643331
   0.00000000  0.50000000  0.49925226
   0.00000000  0.50000000  0.83487784
   0.50000000  0.50000000  0.00325384
   0.50000000  0.50000000  0.33318958
   0.50000000  0.50000000  0.66529573
   0.50000000  0.00000000  0.16643331
   0.50000000  0.00000000  0.49925226
   0.50000000  0.00000000  0.83487784
   0.00000000  0.00000000  0.99930335
   0.00000000  0.00000000  0.33059545
   0.00000000  0.00000000  0.66723523
 
 position of ions in cartesian coordinates  (Angst):
   0.00000000  1.79121218  1.80260678
   0.00000000  1.79121218  5.40730393
   0.00000000  1.79121218  9.04239914
   1.79121218  1.79121218  0.03524172
   1.79121218  1.79121218  3.60871137
   1.79121218  1.79121218  7.20568843
   1.79121218  0.00000000  1.80260678
   1.79121218  0.00000000  5.40730393
   1.79121218  0.00000000  9.04239914
   0.00000000  0.00000000 10.82325980
   0.00000000  0.00000000  3.58061488
   0.00000000  0.00000000  7.22669479
 


--------------------------------------------------------------------------------------------------------


 k-point     1 :   0.0000 0.0000 0.0000  plane waves:    3713
 k-point     2 :   0.0769 0.0000 0.0000  plane waves:    3757
 k-point     3 :   0.1538 0.0000 0.0000  plane waves:    3767
 k-point     4 :   0.2308 0.0000 0.0000  plane waves:    3759
 k-point     5 :   0.3077 0.0000 0.0000  plane waves:    3757
 k-point     6 :   0.3846 0.0000 0.0000  plane waves:    3734
 k-point     7 :   0.4615 0.0000 0.0000  plane waves:    3740
 k-point     8 :   0.0769 0.0769 0.0000  plane waves:    3757
 k-point     9 :   0.1538 0.0769 0.0000  plane waves:    3756
 k-point    10 :   0.2308 0.0769 0.0000  plane waves:    3758
 k-point    11 :   0.3077 0.0769 0.0000  plane waves:    3744
 k-point    12 :   0.3846 0.0769 0.0000  plane waves:    3741
 k-point    13 :   0.4615 0.0769 0.0000  plane waves:    3743
 k-point    14 :   0.1538 0.1538 0.0000  plane waves:    3763
 k-point    15 :   0.2308 0.1538 0.0000  plane waves:    3746
 k-point    16 :   0.3077 0.1538 0.0000  plane waves:    3737
 k-point    17 :   0.3846 0.1538 0.0000  plane waves:    3724
 k-point    18 :   0.4615 0.1538 0.0000  plane waves:    3730
 k-point    19 :   0.2308 0.2308 0.0000  plane waves:    3765
 k-point    20 :   0.3077 0.2308 0.0000  plane waves:    3738
 k-point    21 :   0.3846 0.2308 0.0000  plane waves:    3725
 k-point    22 :   0.4615 0.2308 0.0000  plane waves:    3717
 k-point    23 :   0.3077 0.3077 0.0000  plane waves:    3742
 k-point    24 :   0.3846 0.3077 0.0000  plane waves:    3744
 k-point    25 :   0.4615 0.3077 0.0000  plane waves:    3731
 k-point    26 :   0.3846 0.3846 0.0000  plane waves:    3742
 k-point    27 :   0.4615 0.3846 0.0000  plane waves:    3744
 k-point    28 :   0.4615 0.4615 0.0000  plane waves:    3764
 k-point    29 :   0.0000 0.0000 0.2500  plane waves:    3748
 k-point    30 :   0.0769 0.0000 0.2500  plane waves:    3751
 k-point    31 :   0.1538 0.0000 0.2500  plane waves:    3758
 k-point    32 :   0.2308 0.0000 0.2500  plane waves:    3762
 k-point    33 :   0.3077 0.0000 0.2500  plane waves:    3746
 k-point    34 :   0.3846 0.0000 0.2500  plane waves:    3735
 k-point    35 :   0.4615 0.0000 0.2500  plane waves:    3736
 k-point    36 :   0.0769 0.0769 0.2500  plane waves:    3751
 k-point    37 :   0.1538 0.0769 0.2500  plane waves:    3764
 k-point    38 :   0.2308 0.0769 0.2500  plane waves:    3763
 k-point    39 :   0.3077 0.0769 0.2500  plane waves:    3743
 k-point    40 :   0.3846 0.0769 0.2500  plane waves:    3731
 k-point    41 :   0.4615 0.0769 0.2500  plane waves:    3738
 k-point    42 :   0.1538 0.1538 0.2500  plane waves:    3756
 k-point    43 :   0.2308 0.1538 0.2500  plane waves:    3743
 k-point    44 :   0.3077 0.1538 0.2500  plane waves:    3736
 k-point    45 :   0.3846 0.1538 0.2500  plane waves:    3732
 k-point    46 :   0.4615 0.1538 0.2500  plane waves:    3730
 k-point    47 :   0.2308 0.2308 0.2500  plane waves:    3743
 k-point    48 :   0.3077 0.2308 0.2500  plane waves:    3744
 k-point    49 :   0.3846 0.2308 0.2500  plane waves:    3730
 k-point    50 :   0.4615 0.2308 0.2500  plane waves:    3738
 k-point    51 :   0.3077 0.3077 0.2500  plane waves:    3730
 k-point    52 :   0.3846 0.3077 0.2500  plane waves:    3738
 k-point    53 :   0.4615 0.3077 0.2500  plane waves:    3729
 k-point    54 :   0.3846 0.3846 0.2500  plane waves:    3745
 k-point    55 :   0.4615 0.3846 0.2500  plane waves:    3745
 k-point    56 :   0.4615 0.4615 0.2500  plane waves:    3742
 k-point    57 :   0.0000 0.0000 0.5000  plane waves:    3768
 k-point    58 :   0.0769 0.0000 0.5000  plane waves:    3772
 k-point    59 :   0.1538 0.0000 0.5000  plane waves:    3762
 k-point    60 :   0.2308 0.0000 0.5000  plane waves:    3768
 k-point    61 :   0.3077 0.0000 0.5000  plane waves:    3750
 k-point    62 :   0.3846 0.0000 0.5000  plane waves:    3734
 k-point    63 :   0.4615 0.0000 0.5000  plane waves:    3732
 k-point    64 :   0.0769 0.0769 0.5000  plane waves:    3776
 k-point    65 :   0.1538 0.0769 0.5000  plane waves:    3762
 k-point    66 :   0.2308 0.0769 0.5000  plane waves:    3758
 k-point    67 :   0.3077 0.0769 0.5000  plane waves:    3736
 k-point    68 :   0.3846 0.0769 0.5000  plane waves:    3734
 k-point    69 :   0.4615 0.0769 0.5000  plane waves:    3738
 k-point    70 :   0.1538 0.1538 0.5000  plane waves:    3746
 k-point    71 :   0.2308 0.1538 0.5000  plane waves:    3744
 k-point    72 :   0.3077 0.1538 0.5000  plane waves:    3738
 k-point    73 :   0.3846 0.1538 0.5000  plane waves:    3740
 k-point    74 :   0.4615 0.1538 0.5000  plane waves:    3752
 k-point    75 :   0.2308 0.2308 0.5000  plane waves:    3736
 k-point    76 :   0.3077 0.2308 0.5000  plane waves:    3726
 k-point    77 :   0.3846 0.2308 0.5000  plane waves:    3740
 k-point    78 :   0.4615 0.2308 0.5000  plane waves:    3738
 k-point    79 :   0.3077 0.3077 0.5000  plane waves:    3728
 k-point    80 :   0.3846 0.3077 0.5000  plane waves:    3730
 k-point    81 :   0.4615 0.3077 0.5000  plane waves:    3726
 k-point    82 :   0.3846 0.3846 0.5000  plane waves:    3740
 k-point    83 :   0.4615 0.3846 0.5000  plane waves:    3752
 k-point    84 :   0.4615 0.4615 0.5000  plane waves:    3756

 maximum and minimum number of plane-waves per node :      3776     3713

 maximum number of plane-waves:      3776
 maximum index in each direction: 
   IXMAX=    6   IYMAX=    6   IZMAX=   20
   IXMIN=   -7   IYMIN=   -7   IZMIN=  -20


 serial   3D FFT for wavefunctions
 parallel 3D FFT for charge:
    minimum data exchange during FFTs selected (reduces bandwidth)


 total amount of memory used by VASP MPI-rank0   173155. kBytes
=======================================================================

   base      :      30000. kBytes
   nonl-proj :      92073. kBytes
   fftplans  :        888. kBytes
   grid      :       6813. kBytes
   one-center:        373. kBytes
   wavefun   :      43008. kBytes
 
     INWAV:  cpu time      0.0000: real time      0.0000
 Broyden mixing: mesh for mixing (old mesh)
   NGX = 13   NGY = 13   NGZ = 41
  (NGX  = 56   NGY  = 56   NGZ  =168)
  gives a total of   6929 points

 initial charge density was supplied:
 charge density of overlapping atoms calculated
 number of electron     156.0000000 magnetization       7.7440000
 keeping initial charge density in first step


--------------------------------------------------------------------------------------------------------


 Maximum index for augmentation-charges         1106 (set IRDMAX)


--------------------------------------------------------------------------------------------------------


 First call to EWALD:  gamma=   0.342
 Maximum number of real-space cells 4x 4x 2
 Maximum number of reciprocal cells 2x 2x 5

    FEWALD:  cpu time      0.5191: real time      0.5213


--------------------------------------- Ionic step        1  -------------------------------------------




--------------------------------------- Iteration      1(   1)  ---------------------------------------


    POTLOK:  cpu time      0.0347: real time      0.0366
    SETDIJ:  cpu time      0.3562: real time      0.3577
     EDDAV:  cpu time      9.8167: real time      9.8765
 BZINTS: Fermi energy:   24.894220;  156.000000 electrons
         Band energy: 0.733769E+03;  BLOECHL correction:   -0.066384
       DOS:  cpu time      2.4551: real time      2.4666
    --------------------------------------------
      LOOP:  cpu time     12.6627: real time     12.7374

 eigenvalue-minimisations  : 43296
 total energy-change (2. order) : 0.1756783E+04  (-0.8375839E+04)
 number of electron     156.0000000 magnetization       7.7440000
 augmentation part      156.0000000 magnetization       7.7440000

 Free energy of the ion-electron system (eV)
  ---------------------------------------------------
  alpha Z        PSCENC =      1224.38942132
  Ewald energy   TEWEN  =    -18799.24399706
  -Hartree energ DENC   =     -5642.56485626
  -exchange      EXHF   =         0.00000000
  -V(xc)+E(xc)   XCENC  =       660.45300777
  PAW double counting   =     20096.04292426   -20820.16510013
  entropy T*S    EENTRO =         0.00000000
  eigenvalues    EBANDS =       733.76853263
  atomic energy  EATOM  =     24304.10294433
  Solvation  Ediel_sol  =         0.00000000
  ---------------------------------------------------
  free energy    TOTEN  =      1756.78287686 eV

  energy without entropy =     1756.78287686  energy(sigma->0) =     1756.78287686


--------------------------------------------------------------------------------------------------------




--------------------------------------- Iteration      1(   2)  ---------------------------------------


     EDDAV:  cpu time      6.1717: real time      6.2643
 BZINTS: Fermi energy:   13.970081;  156.000000 electrons
         Band energy:-0.101752E+04;  BLOECHL correction:   -0.022816
       DOS:  cpu time      0.1265: real time      0.1276
    --------------------------------------------
      LOOP:  cpu time      6.2983: real time      6.3919

 eigenvalue-minimisations  : 43008
 total energy-change (2. order) :-0.1751288E+04  (-0.1661700E+04)
 number of electron     156.0000000 magnetization       7.7440000
 augmentation part      156.0000000 magnetization       7.7440000

 Free energy of the ion-electron system (eV)
  ---------------------------------------------------
  alpha Z        PSCENC =      1224.38942132
  Ewald energy   TEWEN  =    -18799.24399706
  -Hartree energ DENC   =     -5642.56485626
  -exchange      EXHF   =         0.00000000
  -V(xc)+E(xc)   XCENC  =       660.45300777
  PAW double counting   =     20096.04292426   -20820.16510013
  entropy T*S    EENTRO =         0.00000000
  eigenvalues    EBANDS =     -1017.51902078
  atomic energy  EATOM  =     24304.10294433
  Solvation  Ediel_sol  =         0.00000000
  ---------------------------------------------------
  free energy    TOTEN  =         5.49532345 eV

  energy without entropy =        5.49532345  energy(sigma->0) =        5.49532345


--------------------------------------------------------------------------------------------------------




--------------------------------------- Iteration      1(   3)  ---------------------------------------


     EDDAV:  cpu time      8.7123: real time      8.7894
 BZINTS: Fermi energy:   13.397196;  156.000000 electrons
         Band energy:-0.112607E+04;  BLOECHL correction:   -0.028546
       DOS:  cpu time      0.2485: real time      0.2499
    --------------------------------------------
      LOOP:  cpu time      8.9608: real time      9.0393

 eigenvalue-minimisations  : 50496
 total energy-change (2. order) :-0.1085527E+03  (-0.1072867E+03)
 number of electron     156.0000000 magnetization       7.7440000
 augmentation part      156.0000000 magnetization       7.7440000

 Free energy of the ion-electron system (eV)
  ---------------------------------------------------
  alpha Z        PSCENC =      1224.38942132
  Ewald energy   TEWEN  =    -18799.24399706
  -Hartree energ DENC   =     -5642.56485626
  -exchange      EXHF   =         0.00000000
  -V(xc)+E(xc)   XCENC  =       660.45300777
  PAW double counting   =     20096.04292426   -20820.16510013
  entropy T*S    EENTRO =         0.00000000
  eigenvalues    EBANDS =     -1126.07167632
  atomic energy  EATOM  =     24304.10294433
  Solvation  Ediel_sol  =         0.00000000
  ---------------------------------------------------
  free energy    TOTEN  =      -103.05733208 eV

  energy without entropy =     -103.05733208  energy(sigma->0) =     -103.05733208


--------------------------------------------------------------------------------------------------------




--------------------------------------- Iteration      1(   4)  ---------------------------------------


     EDDAV:  cpu time     14.7941: real time     14.8825
 BZINTS: Fermi energy:   13.392444;  156.000000 electrons
         Band energy:-0.112754E+04;  BLOECHL correction:   -0.028508
       DOS:  cpu time      0.1266: real time      0.1275
    --------------------------------------------
      LOOP:  cpu time     14.9207: real time     15.0101

 eigenvalue-minimisations  : 45600
 total energy-change (2. order) :-0.1467926E+01  (-0.1467681E+01)
 number of electron     156.0000000 magnetization       7.7440000
 augmentation part      156.0000000 magnetization       7.7440000

 Free energy of the ion-electron system (eV)
  ---------------------------------------------------
  alpha Z        PSCENC =      1224.38942132
  Ewald energy   TEWEN  =    -18799.24399706
  -Hartree energ DENC   =     -5642.56485626
  -exchange      EXHF   =         0.00000000
  -V(xc)+E(xc)   XCENC  =       660.45300777
  PAW double counting   =     20096.04292426   -20820.16510013
  entropy T*S    EENTRO =         0.00000000
  eigenvalues    EBANDS =     -1127.53960274
  atomic energy  EATOM  =     24304.10294433
  Solvation  Ediel_sol  =         0.00000000
  ---------------------------------------------------
  free energy    TOTEN  =      -104.52525851 eV

  energy without entropy =     -104.52525851  energy(sigma->0) =     -104.52525851


--------------------------------------------------------------------------------------------------------




--------------------------------------- Iteration      1(   5)  ---------------------------------------


     EDDAV:  cpu time      7.0068: real time      7.0526
 BZINTS: Fermi energy:   13.392398;  156.000000 electrons
         Band energy:-0.112757E+04;  BLOECHL correction:   -0.028507
       DOS:  cpu time      0.1263: real time      0.1273
    CHARGE:  cpu time      0.1508: real time      0.1518
    MIXING:  cpu time      0.0082: real time      0.0086
    --------------------------------------------
      LOOP:  cpu time      7.2922: real time      7.3403

 eigenvalue-minimisations  : 53408
 total energy-change (2. order) :-0.2542941E-01  (-0.2542889E-01)
 number of electron     155.9999825 magnetization       7.1055237
 augmentation part       79.2783837 magnetization       5.3978180

 Broyden mixing:
  rms(total) = 0.43905E+01    rms(broyden)= 0.43901E+01
  rms(prec ) = 0.48317E+01
  weight for this iteration     100.00

 Free energy of the ion-electron system (eV)
  ---------------------------------------------------
  alpha Z        PSCENC =      1224.38942132
  Ewald energy   TEWEN  =    -18799.24399706
  -Hartree energ DENC   =     -5642.56485626
  -exchange      EXHF   =         0.00000000
  -V(xc)+E(xc)   XCENC  =       660.45300777
  PAW double counting   =     20096.04292426   -20820.16510013
  entropy T*S    EENTRO =         0.00000000
  eigenvalues    EBANDS =     -1127.56503215
  atomic energy  EATOM  =     24304.10294433
  Solvation  Ediel_sol  =         0.00000000
  ---------------------------------------------------
  free energy    TOTEN  =      -104.55068792 eV

  energy without entropy =     -104.55068792  energy(sigma->0) =     -104.55068792


--------------------------------------------------------------------------------------------------------




--------------------------------------- Iteration      1(   6)  ---------------------------------------


    POTLOK:  cpu time      0.0430: real time      0.0439
    SETDIJ:  cpu time      0.0083: real time      0.0083
     EDDAV:  cpu time      6.5856: real time      6.6325
 BZINTS: Fermi energy:   10.729069;  156.000000 electrons
         Band energy:-0.151839E+04;  BLOECHL correction:   -0.030723
       DOS:  cpu time      0.1334: real time      0.1343
    CHARGE:  cpu time      0.1485: real time      0.1493
    MIXING:  cpu time      0.0029: real time      0.0031
    --------------------------------------------
      LOOP:  cpu time      6.9216: real time      6.9714

 eigenvalue-minimisations  : 50272
 total energy-change (2. order) : 0.7689513E+00  (-0.1083810E+02)
 number of electron     155.9999810 magnetization       6.6666384
 augmentation part       87.4358870 magnetization       5.5653819

 Broyden mixing:
  rms(total) = 0.47796E+01    rms(broyden)= 0.47794E+01
  rms(prec ) = 0.70158E+01
  weight for this iteration     100.00

 eigenvalues of (default mixing * dielectric matrix)
  average eigenvalue GAMMA=   0.4137
  0.4137

 Free energy of the ion-electron system (eV)
  ---------------------------------------------------
  alpha Z        PSCENC =      1224.38942132
  Ewald energy   TEWEN  =    -18799.24399706
  -Hartree energ DENC   =     -5253.50339847
  -exchange      EXHF   =         0.00000000
  -V(xc)+E(xc)   XCENC  =       643.12402283
  PAW double counting   =     20865.97235617   -21570.23744827
  entropy T*S    EENTRO =         0.00000000
  eigenvalues    EBANDS =     -1518.38563746
  atomic energy  EATOM  =     24304.10294433
  Solvation  Ediel_sol  =         0.00000000
  ---------------------------------------------------
  free energy    TOTEN  =      -103.78173661 eV

  energy without entropy =     -103.78173661  energy(sigma->0) =     -103.78173661


--------------------------------------------------------------------------------------------------------




--------------------------------------- Iteration      1(   7)  ---------------------------------------


    POTLOK:  cpu time      0.0436: real time      0.0445
    SETDIJ:  cpu time      0.0271: real time      0.0274
     EDDAV:  cpu time      7.2786: real time      7.3278
 BZINTS: Fermi energy:   12.023642;  156.000000 electrons
         Band energy:-0.142882E+04;  BLOECHL correction:   -0.023321
       DOS:  cpu time      0.1338: real time      0.1347
    CHARGE:  cpu time      0.1482: real time      0.1490
    MIXING:  cpu time      0.0029: real time      0.0030
    --------------------------------------------
      LOOP:  cpu time      7.6342: real time      7.6864

 eigenvalue-minimisations  : 53440
 total energy-change (2. order) :-0.2018799E+02  (-0.4377797E+02)
 number of electron     155.9999815 magnetization       5.8863637
 augmentation part       84.5647073 magnetization       4.9602706

 Broyden mixing:
  rms(total) = 0.71926E+01    rms(broyden)= 0.71923E+01
  rms(prec ) = 0.11334E+02
  weight for this iteration     100.00

 eigenvalues of (default mixing * dielectric matrix)
  average eigenvalue GAMMA=   0.3981
  0.6686  0.1276

 Free energy of the ion-electron system (eV)
  ---------------------------------------------------
  alpha Z        PSCENC =      1224.38942132
  Ewald energy   TEWEN  =    -18799.24399706
  -Hartree energ DENC   =     -5345.48453998
  -exchange      EXHF   =         0.00000000
  -V(xc)+E(xc)   XCENC  =       646.01887790
  PAW double counting   =     21307.93135759   -22032.85909600
  entropy T*S    EENTRO =         0.00000000
  eigenvalues    EBANDS =     -1428.82469733
  atomic energy  EATOM  =     24304.10294433
  Solvation  Ediel_sol  =         0.00000000
  ---------------------------------------------------
  free energy    TOTEN  =      -123.96972925 eV

  energy without entropy =     -123.96972925  energy(sigma->0) =     -123.96972925


--------------------------------------------------------------------------------------------------------




--------------------------------------- Iteration      1(   8)  ---------------------------------------


    POTLOK:  cpu time      0.0292: real time      0.0444
    SETDIJ:  cpu time      0.0079: real time      0.0080
     EDDAV:  cpu time      6.7693: real time      6.8154
 BZINTS: Fermi energy:   12.040800;  156.000000 electrons
         Band energy:-0.133208E+04;  BLOECHL correction:   -0.025236
       DOS:  cpu time      0.1334: real time      0.1343
    CHARGE:  cpu time      0.1490: real time      0.1498
    MIXING:  cpu time      0.0016: real time      0.0016
    --------------------------------------------
      LOOP:  cpu time      7.0904: real time      7.1536

 eigenvalue-minimisations  : 51808
 total energy-change (2. order) : 0.2630812E+02  (-0.1123578E+02)
 number of electron     155.9999826 magnetization       5.5029457
 augmentation part       83.1166150 magnetization       3.7827966

 Broyden mixing:
  rms(total) = 0.32431E+01    rms(broyden)= 0.32427E+01
  rms(prec ) = 0.46345E+01
  weight for this iteration     100.00

 eigenvalues of (default mixing * dielectric matrix)
  average eigenvalue GAMMA=   0.5000
  1.0397  0.3337  0.1267

 Free energy of the ion-electron system (eV)
  ---------------------------------------------------
  alpha Z        PSCENC =      1224.38942132
  Ewald energy   TEWEN  =    -18799.24399706
  -Hartree energ DENC   =     -5397.43733973
  -exchange      EXHF   =         0.00000000
  -V(xc)+E(xc)   XCENC  =       647.36207773
  PAW double counting   =     21838.67376908   -22583.43253695
  entropy T*S    EENTRO =         0.00000000
  eigenvalues    EBANDS =     -1332.07594816
  atomic energy  EATOM  =     24304.10294433
  Solvation  Ediel_sol  =         0.00000000
  ---------------------------------------------------
  free energy    TOTEN  =       -97.66160945 eV

  energy without entropy =      -97.66160945  energy(sigma->0) =      -97.66160945


--------------------------------------------------------------------------------------------------------




--------------------------------------- Iteration      1(   9)  ---------------------------------------


    POTLOK:  cpu time      0.0434: real time      0.0444
    SETDIJ:  cpu time      0.0081: real time      0.0081
     EDDAV:  cpu time      6.8964: real time      6.9460
 BZINTS: Fermi energy:   11.943842;  156.000000 electrons
         Band energy:-0.136602E+04;  BLOECHL correction:   -0.025204
       DOS:  cpu time      0.1337: real time      0.1347
    CHARGE:  cpu time      0.1483: real time      0.1493
    MIXING:  cpu time      0.0018: real time      0.0018
    --------------------------------------------
      LOOP:  cpu time      7.2318: real time      7.2843

 eigenvalue-minimisations  : 52704
 total energy-change (2. order) :-0.8479329E+01  (-0.1827074E+02)
 number of electron     155.9999811 magnetization       5.1414756
 augmentation part       83.7836893 magnetization       3.4286308

 Broyden mixing:
  rms(total) = 0.49983E+01    rms(broyden)= 0.49980E+01
  rms(prec ) = 0.74766E+01
  weight for this iteration     100.00

 eigenvalues of (default mixing * dielectric matrix)
  average eigenvalue GAMMA=   0.4978
  1.3466  0.4065  0.1370  0.1011

 Free energy of the ion-electron system (eV)
  ---------------------------------------------------
  alpha Z        PSCENC =      1224.38942132
  Ewald energy   TEWEN  =    -18799.24399706
  -Hartree energ DENC   =     -5366.67915041
  -exchange      EXHF   =         0.00000000
  -V(xc)+E(xc)   XCENC  =       646.19193058
  PAW double counting   =     22091.38402312   -22840.26487200
  entropy T*S    EENTRO =         0.00000000
  eigenvalues    EBANDS =     -1366.02123841
  atomic energy  EATOM  =     24304.10294433
  Solvation  Ediel_sol  =         0.00000000
  ---------------------------------------------------
  free energy    TOTEN  =      -106.14093852 eV

  energy without entropy =     -106.14093852  energy(sigma->0) =     -106.14093852


--------------------------------------------------------------------------------------------------------




--------------------------------------- Iteration      1(  10)  ---------------------------------------


    POTLOK:  cpu time      0.0305: real time      0.0443
    SETDIJ:  cpu time      0.0084: real time      0.0084
     EDDAV:  cpu time      6.8093: real time      6.8554
 BZINTS: Fermi energy:   11.431613;  156.000000 electrons
         Band energy:-0.139591E+04;  BLOECHL correction:   -0.029153
       DOS:  cpu time      0.1323: real time      0.1334
    CHARGE:  cpu time      0.1518: real time      0.1526
    MIXING:  cpu time      0.0018: real time      0.0018
    --------------------------------------------
      LOOP:  cpu time      7.1341: real time      7.1960

 eigenvalue-minimisations  : 51808
 total energy-change (2. order) : 0.1197303E+02  (-0.7070413E+01)
 number of electron     155.9999816 magnetization       5.1444441
 augmentation part       84.5589276 magnetization       3.9165345

 Broyden mixing:
  rms(total) = 0.25342E+01    rms(broyden)= 0.25339E+01
  rms(prec ) = 0.40442E+01
  weight for this iteration     100.00

 eigenvalues of (default mixing * dielectric matrix)
  average eigenvalue GAMMA=   0.4366
  1.3242  0.3852  0.2298  0.1385  0.1055

 Free energy of the ion-electron system (eV)
  ---------------------------------------------------
  alpha Z        PSCENC =      1224.38942132
  Ewald energy   TEWEN  =    -18799.24399706
  -Hartree energ DENC   =     -5320.00000527
  -exchange      EXHF   =         0.00000000
  -V(xc)+E(xc)   XCENC  =       644.39882554
  PAW double counting   =     22362.26104373   -23114.16912777
  entropy T*S    EENTRO =         0.00000000
  eigenvalues    EBANDS =     -1395.90701551
  atomic energy  EATOM  =     24304.10294433
  Solvation  Ediel_sol  =         0.00000000
  ---------------------------------------------------
  free energy    TOTEN  =       -94.16791070 eV

  energy without entropy =      -94.16791070  energy(sigma->0) =      -94.16791070


--------------------------------------------------------------------------------------------------------




--------------------------------------- Iteration      1(  11)  ---------------------------------------


    POTLOK:  cpu time      0.0440: real time      0.0449
    SETDIJ:  cpu time      0.0080: real time      0.0081
     EDDAV:  cpu time      7.1226: real time      7.1717
 BZINTS: Fermi energy:   11.464108;  156.000000 electrons
         Band energy:-0.139619E+04;  BLOECHL correction:   -0.031455
       DOS:  cpu time      0.1333: real time      0.1346
    CHARGE:  cpu time      0.1495: real time      0.1503
    MIXING:  cpu time      0.0019: real time      0.0020
    --------------------------------------------
      LOOP:  cpu time      7.4593: real time      7.5115

 eigenvalue-minimisations  : 53024
 total energy-change (2. order) : 0.2046030E+01  (-0.2975453E+01)
 number of electron     155.9999814 magnetization       5.1528254
 augmentation part       84.3958715 magnetization       3.7049482

 Broyden mixing:
  rms(total) = 0.13163E+01    rms(broyden)= 0.13159E+01
  rms(prec ) = 0.17911E+01
  weight for this iteration     100.00

 eigenvalues of (default mixing * dielectric matrix)
  average eigenvalue GAMMA=   0.4395
  1.2980  0.4987  0.4987  0.1442  0.0986  0.0986

 Free energy of the ion-electron system (eV)
  ---------------------------------------------------
  alpha Z        PSCENC =      1224.38942132
  Ewald energy   TEWEN  =    -18799.24399706
  -Hartree energ DENC   =     -5317.13166993
  -exchange      EXHF   =         0.00000000
  -V(xc)+E(xc)   XCENC  =       644.36019987
  PAW double counting   =     22385.09075626   -23137.49587883
  entropy T*S    EENTRO =         0.00000000
  eigenvalues    EBANDS =     -1396.19365678
  atomic energy  EATOM  =     24304.10294433
  Solvation  Ediel_sol  =         0.00000000
  ---------------------------------------------------
  free energy    TOTEN  =       -92.12188083 eV

  energy without entropy =      -92.12188083  energy(sigma->0) =      -92.12188083


--------------------------------------------------------------------------------------------------------




--------------------------------------- Iteration      1(  12)  ---------------------------------------


    POTLOK:  cpu time      0.0439: real time      0.0449
    SETDIJ:  cpu time      0.0079: real time      0.0079
     EDDAV:  cpu time      6.9858: real time      7.0344
 BZINTS: Fermi energy:   11.439459;  156.000000 electrons
         Band energy:-0.139595E+04;  BLOECHL correction:   -0.028683
       DOS:  cpu time      0.1327: real time      0.1336
    CHARGE:  cpu time      0.1481: real time      0.1490
    MIXING:  cpu time      0.0019: real time      0.0019
    --------------------------------------------
      LOOP:  cpu time      7.3202: real time      7.3717

 eigenvalue-minimisations  : 52896
 total energy-change (2. order) :-0.1323472E+00  (-0.7446084E+00)
 number of electron     155.9999817 magnetization       5.1645297
 augmentation part       84.4165723 magnetization       3.8598053

 Broyden mixing:
  rms(total) = 0.10235E+01    rms(broyden)= 0.10233E+01
  rms(prec ) = 0.14130E+01
  weight for this iteration     100.00

 eigenvalues of (default mixing * dielectric matrix)
  average eigenvalue GAMMA=   0.4217
  1.3028  0.5242  0.5242  0.2690  0.1323  0.1065  0.0926

 Free energy of the ion-electron system (eV)
  ---------------------------------------------------
  alpha Z        PSCENC =      1224.38942132
  Ewald energy   TEWEN  =    -18799.24399706
  -Hartree energ DENC   =     -5315.72269049
  -exchange      EXHF   =         0.00000000
  -V(xc)+E(xc)   XCENC  =       644.43981401
  PAW double counting   =     22432.37547046   -23186.64468682
  entropy T*S    EENTRO =         0.00000000
  eigenvalues    EBANDS =     -1395.95050383
  atomic energy  EATOM  =     24304.10294433
  Solvation  Ediel_sol  =         0.00000000
  ---------------------------------------------------
  free energy    TOTEN  =       -92.25422807 eV

  energy without entropy =      -92.25422807  energy(sigma->0) =      -92.25422807


--------------------------------------------------------------------------------------------------------




--------------------------------------- Iteration      1(  13)  ---------------------------------------


    POTLOK:  cpu time      0.0312: real time      0.0454
    SETDIJ:  cpu time      0.0079: real time      0.0080
     EDDAV:  cpu time      6.6613: real time      6.7073
 BZINTS: Fermi energy:   11.413977;  156.000000 electrons
         Band energy:-0.139768E+04;  BLOECHL correction:   -0.032991
       DOS:  cpu time      0.1331: real time      0.1347
    CHARGE:  cpu time      0.1481: real time      0.1490
    MIXING:  cpu time      0.0019: real time      0.0019
    --------------------------------------------
      LOOP:  cpu time      6.9836: real time      7.0462

 eigenvalue-minimisations  : 51488
 total energy-change (2. order) : 0.7840119E-01  (-0.5245768E+00)
 number of electron     155.9999817 magnetization       5.1823527
 augmentation part       84.4769678 magnetization       3.8849435

 Broyden mixing:
  rms(total) = 0.82349E+00    rms(broyden)= 0.82332E+00
  rms(prec ) = 0.11425E+01
  weight for this iteration     100.00

 eigenvalues of (default mixing * dielectric matrix)
  average eigenvalue GAMMA=   0.4326
  1.2558  0.7090  0.7090  0.3594  0.1369  0.1110  0.0900  0.0900

 Free energy of the ion-electron system (eV)
  ---------------------------------------------------
  alpha Z        PSCENC =      1224.38942132
  Ewald energy   TEWEN  =    -18799.24399706
  -Hartree energ DENC   =     -5313.61243287
  -exchange      EXHF   =         0.00000000
  -V(xc)+E(xc)   XCENC  =       644.41847782
  PAW double counting   =     22445.63835169   -23200.19258171
  entropy T*S    EENTRO =         0.00000000
  eigenvalues    EBANDS =     -1397.67601040
  atomic energy  EATOM  =     24304.10294433
  Solvation  Ediel_sol  =         0.00000000
  ---------------------------------------------------
  free energy    TOTEN  =       -92.17582688 eV

  energy without entropy =      -92.17582688  energy(sigma->0) =      -92.17582688


--------------------------------------------------------------------------------------------------------




--------------------------------------- Iteration      1(  14)  ---------------------------------------


    POTLOK:  cpu time      0.0437: real time      0.0447
    SETDIJ:  cpu time      0.0083: real time      0.0083
     EDDAV:  cpu time      7.2293: real time      7.2777
[...]
    113      27.1352      0.00000
    114      27.5157      0.00000
    115      27.5395      0.00000
    116      27.8963      0.00000
    117      28.0254      0.00000
    118      28.8954      0.00000
    119      29.0368      0.00000
    120      29.5053      0.00000
    121      29.5465      0.00000
    122      29.5705      0.00000
    123      30.1435      0.00000
    124      31.2892      0.00000
    125      31.5261      0.00000
    126      31.7312      0.00000
    127      31.9241      0.00000
    128      32.7468      0.00000


--------------------------------------------------------------------------------------------------------


 soft charge-density along one line, spin component           1
         0         1         2         3         4         5         6         7         8         9
 total charge-density along one line
 
 soft charge-density along one line, spin component           2
         0         1         2         3         4         5         6         7         8         9
 total charge-density along one line
 
 pseudopotential strength for first ion, spin component:           1
-41.934  -0.000  -0.000   6.346   0.000   0.000   0.000  -0.001
 -0.000 -41.970   0.000   0.000   6.360  -0.000  -0.000   0.000
 -0.000   0.000 -41.915   0.000  -0.000   6.337   0.000  -0.000
  6.346   0.000   0.000   5.957   0.000   0.000   0.000   0.001
  0.000   6.360  -0.000   0.000   5.952  -0.000   0.000  -0.000
  0.000  -0.000   6.337   0.000  -0.000   5.956  -0.000   0.000
  0.000  -0.000   0.000   0.000   0.000  -0.000   0.345   0.000
 -0.001   0.000  -0.000   0.001  -0.000   0.000   0.000   0.357
 -0.000  -0.002   0.000   0.000   0.002  -0.000   0.000  -0.000
 -0.000  -0.000  -0.010   0.000  -0.000   0.006  -0.000  -0.000
 -0.000  -0.004  -0.000   0.000   0.003   0.000  -0.000   0.000
 -0.000  -0.000   0.000   0.000   0.000  -0.000  -0.207   0.000
 -0.001   0.000  -0.000   0.001  -0.000   0.000   0.000  -0.196
 -0.000  -0.002   0.000   0.000   0.002  -0.000   0.000  -0.000
 -0.000  -0.000  -0.010   0.000  -0.000   0.006  -0.000  -0.000
 -0.000  -0.004  -0.000   0.000   0.003   0.000  -0.000   0.000
 -0.000   0.003   0.000  -0.000   0.001   0.000   0.000   0.000
 -0.000   0.008   0.000  -0.000   0.002   0.000   0.000   0.000
 pseudopotential strength for first ion, spin component:           2
-43.637  -0.000  -0.000   7.065   0.000   0.000   0.000   0.004
 -0.000 -43.707   0.000   0.000   7.092  -0.000  -0.000   0.000
 -0.000   0.000 -43.578   0.000  -0.000   7.040   0.000  -0.000
  7.065   0.000   0.000   5.758   0.000   0.000  -0.000  -0.003
  0.000   7.092  -0.000   0.000   5.752  -0.000   0.000  -0.000
  0.000  -0.000   7.040   0.000  -0.000   5.761  -0.000   0.000
  0.000  -0.000   0.000  -0.000   0.000  -0.000  -0.946   0.000
  0.004   0.000  -0.000  -0.003  -0.000   0.000   0.000  -1.099
 -0.000   0.012  -0.000   0.000  -0.006  -0.000   0.000  -0.000
 -0.000  -0.000   0.020   0.000  -0.000  -0.009  -0.000  -0.000
 -0.000   0.008   0.000   0.000  -0.003   0.000  -0.000   0.000
 -0.000  -0.000   0.000   0.000   0.000  -0.000  -1.477   0.000
  0.004   0.000  -0.000  -0.003  -0.000   0.000   0.000  -1.628
 -0.000   0.011   0.000   0.000  -0.006  -0.000   0.000  -0.000
 -0.000  -0.000   0.019   0.000  -0.000  -0.009  -0.000  -0.000
 -0.000   0.008  -0.000   0.000  -0.003  -0.000  -0.000   0.000
 -0.000  -0.004   0.000  -0.000   0.003  -0.000   0.000   0.000
 -0.000  -0.011  -0.000  -0.000   0.007  -0.000   0.000   0.000
 total augmentation occupancy for first ion, spin component:           1
  1.992   0.000   0.000  -0.024   0.000   0.000   0.000  -0.005   0.000   0.000   0.000   0.000   0.005   0.000   0.000   0.000
  0.000   1.992  -0.000   0.000  -0.025   0.000   0.000  -0.000  -0.003   0.000   0.002   0.000   0.000   0.003   0.000  -0.002
  0.000  -0.000   1.992   0.000   0.000  -0.025   0.000   0.000   0.000  -0.002  -0.000   0.000   0.000   0.000   0.002  -0.000
 -0.024   0.000   0.000   0.220  -0.000   0.000   0.000  -0.011   0.000   0.000   0.000   0.000   0.015   0.000   0.000   0.000
  0.000  -0.025   0.000  -0.000   0.221   0.000   0.000   0.000  -0.009   0.000   0.012  -0.000   0.000   0.003   0.000  -0.019
  0.000   0.000  -0.025   0.000   0.000   0.199   0.000   0.000   0.000   0.005   0.000   0.000   0.000   0.000  -0.019   0.000
  0.000   0.000   0.000   0.000   0.000   0.000   2.487   0.000   0.000  -0.000   0.000  -1.513   0.000   0.000   0.000   0.000
 -0.005  -0.000   0.000  -0.011   0.000   0.000   0.000   2.906  -0.000   0.000  -0.000  -0.000  -2.266   0.000   0.000  -0.000
  0.000  -0.003   0.000   0.000  -0.009   0.000   0.000  -0.000   3.216   0.000   0.221   0.000   0.000  -2.005   0.000  -0.104
  0.000   0.000  -0.002   0.000   0.000   0.005  -0.000   0.000   0.000   2.405   0.000  -0.000   0.000   0.000  -1.458  -0.000
  0.000   0.002  -0.000   0.000   0.012   0.000   0.000  -0.000   0.221   0.000   2.992   0.000   0.000  -0.107   0.000  -1.887
  0.000   0.000   0.000   0.000  -0.000   0.000  -1.513  -0.000   0.000  -0.000   0.000   1.944   0.000   0.000   0.000   0.000
  0.005   0.000   0.000   0.015   0.000   0.000   0.000  -2.266   0.000   0.000   0.000   0.000   2.866  -0.000   0.000   0.000
  0.000   0.003   0.000   0.000   0.003   0.000   0.000   0.000  -2.005   0.000  -0.107   0.000  -0.000   2.129   0.000   0.034
  0.000   0.000   0.002   0.000   0.000  -0.019   0.000   0.000   0.000  -1.458   0.000   0.000   0.000   0.000   1.895   0.000
  0.000  -0.002  -0.000   0.000  -0.019   0.000   0.000  -0.000  -0.104  -0.000  -1.887   0.000   0.000   0.034   0.000   2.092
  0.000  -0.001  -0.000   0.000   0.002   0.000   0.000   0.000  -0.123   0.000   0.206   0.000   0.000   0.093   0.000  -0.166
  0.000   0.001  -0.000   0.000  -0.000   0.000   0.000   0.000   0.012   0.000  -0.012   0.000   0.000  -0.007   0.000   0.010
 total augmentation occupancy for first ion, spin component:           2
  0.002   0.000   0.000   0.007  -0.000   0.000   0.000   0.003   0.000   0.000   0.000   0.000  -0.003   0.000   0.000  -0.000
  0.000   0.002   0.000   0.000   0.006  -0.000   0.000   0.000   0.005   0.000   0.004   0.000   0.000  -0.006   0.000  -0.004
  0.000   0.000   0.002   0.000   0.000   0.007   0.000  -0.000   0.000   0.011  -0.000   0.000  -0.000  -0.000  -0.011  -0.000
  0.007   0.000   0.000  -0.007   0.000   0.000   0.000   0.014   0.000   0.000   0.000   0.000  -0.015   0.000  -0.000   0.000
 -0.000   0.006   0.000   0.000  -0.001   0.000   0.000   0.000  -0.011   0.000  -0.041   0.000  -0.000  -0.005   0.000   0.019
  0.000  -0.000   0.007   0.000   0.000  -0.004  -0.000   0.000   0.000  -0.070  -0.000   0.000   0.000   0.000   0.022  -0.000
  0.000   0.000   0.000   0.000   0.000  -0.000  -1.555  -0.000   0.000   0.000   0.000   0.666   0.000  -0.000   0.000   0.000
  0.003   0.000  -0.000   0.014   0.000   0.000  -0.000  -1.607  -0.000   0.000   0.000  -0.000   0.494   0.000   0.000   0.000
  0.000   0.005   0.000   0.000  -0.011   0.000   0.000  -0.000  -2.107   0.000  -0.010  -0.000   0.000   0.895   0.000   0.040
  0.000   0.000   0.011   0.000   0.000  -0.070   0.000   0.000   0.000  -1.379   0.000   0.000   0.000   0.000   0.437  -0.000
  0.000   0.004  -0.000   0.000  -0.041  -0.000   0.000   0.000  -0.010   0.000  -1.993   0.000   0.000   0.039  -0.000   0.742
  0.000   0.000   0.000   0.000   0.000   0.000   0.666  -0.000  -0.000   0.000   0.000  -0.118  -0.000   0.000   0.000   0.000
 -0.003   0.000  -0.000  -0.015  -0.000   0.000   0.000   0.494   0.000   0.000   0.000  -0.000   0.123   0.000   0.000   0.000
  0.000  -0.006  -0.000   0.000  -0.005   0.000  -0.000   0.000   0.895   0.000   0.039   0.000   0.000  -0.247   0.000  -0.053
  0.000   0.000  -0.011  -0.000   0.000   0.022   0.000   0.000   0.000   0.437  -0.000   0.000   0.000   0.000   0.103  -0.000
 -0.000  -0.004  -0.000   0.000   0.019  -0.000   0.000   0.000   0.040  -0.000   0.742   0.000   0.000  -0.053  -0.000  -0.073
  0.000  -0.002   0.000  -0.000  -0.016   0.000   0.000   0.000  -0.022   0.000  -0.026   0.000   0.000   0.002   0.000   0.024
  0.000   0.000   0.000  -0.000  -0.000  -0.000   0.000   0.000  -0.006   0.000   0.003   0.000   0.000   0.001   0.000  -0.000


------------------------ aborting loop because EDIFF is reached ----------------------------------------





 total charge

# of ion       s       p       d       tot
------------------------------------------
    1        0.385   6.402   6.125  12.912
    2        0.379   6.391   6.119  12.889
    3        0.382   6.396   6.106  12.883
    4        0.387   6.404   6.111  12.902
    5        0.385   6.402   6.099  12.887
    6        0.380   6.395   6.108  12.883
    7        0.385   6.402   6.125  12.912
    8        0.379   6.391   6.119  12.889
    9        0.382   6.396   6.106  12.883
   10        0.833   0.849   8.070   9.752
   11        0.833   0.837   8.079   9.749
   12        0.820   0.844   8.080   9.744
--------------------------------------------------
tot          5.929  60.110  79.247 145.285



 magnetization (x)

# of ion       s       p       d       tot
------------------------------------------
    1       -0.010  -0.006  -1.992  -2.009
    2        0.000  -0.011   2.340   2.330
    3        0.007   0.003   2.183   2.192
    4       -0.014  -0.021  -2.037  -2.072
    5        0.013   0.020   2.147   2.179
    6       -0.001  -0.014   2.383   2.368
    7       -0.010  -0.006  -1.992  -2.009
    8        0.000  -0.011   2.340   2.330
    9        0.007   0.003   2.183   2.192
   10        0.006   0.010  -0.053  -0.037
   11       -0.009  -0.021   0.101   0.070
   12       -0.035  -0.092   0.348   0.221
--------------------------------------------------
tot         -0.046  -0.148   7.951   7.756
 
    CHARGE:  cpu time      0.1466: real time      0.1475
    FORLOC:  cpu time      0.0016: real time      0.0016
    FORNL :  cpu time      0.6517: real time      0.6558
    STRESS:  cpu time      3.9587: real time      3.9921
    FORCOR:  cpu time      0.0206: real time      0.0208
    FORHAR:  cpu time      0.0026: real time      0.0027
    MIXING:  cpu time      0.0028: real time      0.0028
    OFIELD:  cpu time      0.0016: real time      0.0016

  FORCE on cell =-STRESS in cart. coord.  units (eV):
  Direction    XX          YY          ZZ          XY          YZ          ZX
  --------------------------------------------------------------------------------------
  Alpha Z  1224.38942  1224.38942  1224.38942
  Ewald   -6261.56222 -6261.56222 -6276.14008     0.00000    -0.00000    -0.00000
  Hartree  1772.37843  1772.37843  1759.02075    -0.00000    -0.00000    -0.00000
  E(xc)    -946.56784  -946.56784  -946.53581    -0.00000     0.00000     0.00000
  Local    1274.38818  1274.38818  1306.40771     0.00000    -0.00000    -0.00000
  n-local  -192.47157  -205.19043  -198.28596    16.25842     0.15234     0.24613
  augment  1435.78694  1435.78694  1432.59866     0.00000     0.00000    -0.00000
  Kinetic  1728.89614  1706.17095  1715.95556     5.18636     0.08495     0.14162
  Fock        0.00000     0.00000     0.00000     0.00000     0.00000     0.00000
  -------------------------------------------------------------------------------------
  Total      17.51545    17.51545    17.41025     0.00000    -0.00000     0.00000
  in kB     201.89111   201.89111   200.67842     0.00000    -0.00000     0.00000
  external pressure =      201.49 kB  Pullay stress =        0.00 kB


 VOLUME and BASIS-vectors are now :
 -----------------------------------------------------------------------------
  energy-cutoff  :      520.00
  volume of cell :      139.00
      direct lattice vectors                 reciprocal lattice vectors
     3.582424361  0.000000000  0.000000000     0.279140576  0.000000000  0.000000000
     0.000000000  3.582424361  0.000000000     0.000000000  0.279140576  0.000000000
     0.000000000  0.000000000 10.830805113     0.000000000  0.000000000  0.092329240

  length of vectors
     3.582424361  3.582424361 10.830805113     0.279140576  0.279140576  0.092329240


 FORCES acting on ions
    electron-ion (+dipol)            ewald-force                    non-local-force                 convergence-correction
 -----------------------------------------------------------------------------------------------
   -.565E-13 0.869E-12 -.828E+01   -.333E-13 0.282E-13 0.748E+01   -.766E-18 0.256E-18 0.798E+00   0.164E-13 -.306E-13 0.769E-02
   -.616E-13 0.108E-11 -.256E+02   -.219E-13 0.112E-14 0.260E+02   0.316E-19 -.195E-18 -.412E+00   0.165E-13 -.355E-13 0.110E-03
   -.570E-13 0.133E-11 0.398E+02   -.150E-13 0.744E-14 -.409E+02   0.407E-18 0.201E-17 0.116E+01   0.218E-13 -.399E-13 -.799E-02
   0.105E-11 -.488E-11 0.555E+02   0.513E-13 -.584E-13 -.537E+02   -.261E-18 -.155E-18 -.182E+01   -.230E-12 -.575E-13 0.323E-02
   0.105E-11 -.454E-11 -.280E+02   0.518E-13 -.250E-13 0.293E+02   -.800E-19 -.137E-18 -.132E+01   -.235E-12 -.607E-13 0.644E-02
   0.105E-11 0.725E-11 -.214E+02   0.746E-13 -.289E-13 0.215E+02   0.252E-18 0.606E-18 -.855E-01   -.226E-12 -.686E-13 -.882E-02
   0.106E-11 -.292E-13 -.828E+01   0.291E-14 -.123E-13 0.748E+01   0.900E-19 -.191E-18 0.798E+00   -.236E-12 -.100E-13 0.769E-02
   0.107E-11 -.120E-12 -.256E+02   0.251E-13 -.486E-13 0.260E+02   0.480E-18 -.297E-18 -.412E+00   -.238E-12 -.166E-13 0.110E-03
   0.107E-11 0.132E-12 0.398E+02   -.273E-14 -.819E-14 -.409E+02   -.211E-18 -.173E-18 0.116E+01   -.234E-12 -.517E-14 -.799E-02
   -.480E-13 -.106E-12 0.191E+02   -.508E-13 0.180E-13 -.193E+02   0.587E-19 -.112E-18 0.670E-01   0.544E-13 -.175E-13 0.203E-02
   -.476E-13 -.180E-12 -.326E+02   -.305E-13 0.114E-13 0.327E+02   0.117E-17 -.230E-17 -.115E+00   0.525E-13 -.214E-13 0.435E-02
   -.462E-13 0.390E-13 -.436E+01   -.261E-13 0.800E-13 0.424E+01   0.574E-18 0.185E-18 0.144E+00   0.557E-13 -.156E-13 -.611E-02
 -----------------------------------------------------------------------------------------------
   0.603E-11 0.855E-12 0.510E-01   0.254E-13 -.352E-13 -.149E-12   0.174E-17 -.505E-18 -.523E-01   -.118E-11 -.379E-12 0.745E-03
 
 
 POSITION                                       TOTAL-FORCE (eV/Angst)
 -----------------------------------------------------------------------------------
      0.00000      1.79121      1.80261        -0.000000      0.000000      0.006909
      0.00000      1.79121      5.40730        -0.000000     -0.000000      0.000596
      0.00000      1.79121      9.04240        -0.000000     -0.000000     -0.003972
      1.79121      1.79121      0.03524        -0.000000      0.000000      0.017463
      1.79121      1.79121      3.60871        -0.000000      0.000000     -0.017515
      1.79121      1.79121      7.20569         0.000000     -0.000000      0.010340
      1.79121      0.00000      1.80261        -0.000000     -0.000000      0.006909
      1.79121      0.00000      5.40730        -0.000000     -0.000000      0.000596
      1.79121      0.00000      9.04240        -0.000000     -0.000000     -0.003972
      0.00000      0.00000     10.82326        -0.000000     -0.000000     -0.036614
      0.00000      0.00000      3.58061        -0.000000     -0.000000      0.004574
      0.00000      0.00000      7.22669        -0.000000     -0.000000      0.014687
 -----------------------------------------------------------------------------------
    total drift:                                0.000000      0.000000     -0.000462


--------------------------------------------------------------------------------------------------------



  FREE ENERGIE OF THE ION-ELECTRON SYSTEM (eV)
  ---------------------------------------------------
  free  energy   TOTEN  =       -92.50652859 eV

  energy  without entropy=      -92.50652859  energy(sigma->0) =      -92.50652859
 


--------------------------------------------------------------------------------------------------------


    POTLOK:  cpu time      0.0365: real time      0.0371


--------------------------------------------------------------------------------------------------------


     LOOP+:  cpu time    244.1108: real time    246.3666
 -----------------------------------------------------------------------------
|                                                                             |
|           W    W    AA    RRRRR   N    N  II  N    N   GGGG   !!!           |
|           W    W   A  A   R    R  NN   N  II  NN   N  G    G  !!!           |
|           W    W  A    A  R    R  N N  N  II  N N  N  G       !!!           |
|           W WW W  AAAAAA  RRRRR   N  N N  II  N  N N  G  GGG   !            |
|           WW  WW  A    A  R   R   N   NN  II  N   NN  G    G                |
|           W    W  A    A  R    R  N    N  II  N    N   GGGG   !!!           |
|                                                                             |
|     Tetrahedron method does not include variations of the Fermi             |
|     occupations, so forces and stress will be inaccurate. We suggest        |
|     using a different smearing scheme ISMEAR = 1 or 2 for metals in         |
|     relaxations.                                                            |
|                                                                             |
 -----------------------------------------------------------------------------

    4ORBIT:  cpu time      0.0000: real time      0.0000



 total charge

# of ion       s       p       d       tot
------------------------------------------
    1        0.385   6.402   6.125  12.912
    2        0.379   6.391   6.119  12.889
    3        0.382   6.396   6.106  12.883
    4        0.387   6.404   6.111  12.902
    5        0.385   6.402   6.099  12.887
    6        0.380   6.395   6.108  12.883
    7        0.385   6.402   6.125  12.912
    8        0.379   6.391   6.119  12.889
    9        0.382   6.396   6.106  12.883
   10        0.833   0.849   8.070   9.752
   11        0.833   0.837   8.079   9.749
   12        0.820   0.844   8.080   9.744
--------------------------------------------------
tot          5.929  60.110  79.247 145.285



 magnetization (x)

# of ion       s       p       d       tot
------------------------------------------
    1       -0.010  -0.006  -1.992  -2.009
    2        0.000  -0.011   2.340   2.330
    3        0.007   0.003   2.183   2.192
    4       -0.014  -0.021  -2.037  -2.072
    5        0.013   0.020   2.147   2.179
    6       -0.001  -0.014   2.383   2.368
    7       -0.010  -0.006  -1.992  -2.009
    8        0.000  -0.011   2.340   2.330
    9        0.007   0.003   2.183   2.192
   10        0.006   0.010  -0.053  -0.037
   11       -0.009  -0.021   0.101   0.070
   12       -0.035  -0.092   0.348   0.221
--------------------------------------------------
tot         -0.046  -0.148   7.951   7.756
 
 BZINTS: Fermi energy:   11.466513;  156.000000 electrons
         Band energy:-0.140056E+04;  BLOECHL correction:   -0.026257

 total amount of memory used by VASP MPI-rank0   173155. kBytes
=======================================================================

   base      :      30000. kBytes
   nonl-proj :      92073. kBytes
   fftplans  :        888. kBytes
   grid      :       6813. kBytes
   one-center:        373. kBytes
   wavefun   :      43008. kBytes
 
  
  
 General timing and accounting informations for this job:
 ========================================================
  
                  Total CPU time used (sec):      264.042
                            User time (sec):      255.356
                          System time (sec):        8.686
                         Elapsed time (sec):      272.255
  
                   Maximum memory used (kb):      901592.
                   Average memory used (kb):          N/A
  
                          Minor page faults:       219921
                          Major page faults:          194
                 Voluntary context switches:         8283
