 vasp.6.4.3 19Mar24 (build Mar 26 2024 14:05:37) complex                        
  
 executed on             LinuxIFC date 2024.12.17  01:09:41
 running  128 mpi-ranks, on    1 nodes
 distrk:  each k-point on   32 cores,    4 groups
 distr:  one band on NCORE=   1 cores,   32 groups


--------------------------------------------------------------------------------------------------------


 INCAR:
   ALGO = All
   EDIFF = 1e-06
   EDIFFG = -0.01
   ENCUT = 520
   GGA = Pe
   IBRION = 2
   ISIF = 4
   ISMEAR = 1
   ISPIN = 2
   KPAR = 4
   LCHARG = True
   LORBIT = 11
   LREAL = False
   LWAVE = False
   MAGMOM = 1*-2.117 1*2.395 1*2.281 1*-2.199 1*2.281 1*2.453 1*-2.117 1*2.395 1*2.281 1*-0.04 1*0.073 1*0.232
   NELM = 200
   NSW = 100
   PREC = Accurate
   SIGMA = 0.2

 POTCAR:    PAW_PBE Fe_pv 02Aug2007               
 POTCAR:    PAW_PBE Pt 04Feb2005                  
 -----------------------------------------------------------------------------
|                                                                             |
|           W    W    AA    RRRRR   N    N  II  N    N   GGGG   !!!           |
|           W    W   A  A   R    R  NN   N  II  NN   N  G    G  !!!           |
|           W    W  A    A  R    R  N N  N  II  N N  N  G       !!!           |
|           W WW W  AAAAAA  RRRRR   N  N N  II  N  N N  G  GGG   !            |
|           WW  WW  A    A  R   R   N   NN  II  N   NN  G    G                |
|           W    W  A    A  R    R  N    N  II  N    N   GGGG   !!!           |
|                                                                             |
|     For optimal performance we recommend to set                             |
|       NCORE = 2 up to number-of-cores-per-socket                            |
|     NCORE specifies how many cores store one orbital (NPAR=cpu/NCORE).      |
|     This setting can greatly improve the performance of VASP for DFT.       |
|     The default, NCORE=1 might be grossly inefficient on modern             |
|     multi-core architectures or massively parallel machines. Do your        |
|     own testing! More info at https://www.vasp.at/wiki/index.php/NCORE      |
|     Unfortunately you need to use the default for GW and RPA                |
|     calculations (for HF NCORE is supported but not extensively tested      |
|     yet).                                                                   |
|                                                                             |
 -----------------------------------------------------------------------------

 POTCAR:    PAW_PBE Fe_pv 02Aug2007               
   SHA256 =  5d22e414b1f82158bf2c7ecb8b97b28fd0923e48cadc1c3bf74d524558f5dd32 Fe_pv/POTCAR          
   COPYR  = (c) Copyright 02Aug2007 Georg Kresse                                                    
   COPYR  = This file is part of the software VASP. Any use, copying, and all other rights are regul
   COPYR  = If you do not have a valid VASP license, you may not use, copy or distribute this file. 
   VRHFIN =Fe:  3pd7s1                                                                              
   LEXCH  = PE                                                                                      
   EATOM  =  2457.4239 eV,  180.6156 Ry                                                             
                                                                                                    
   TITEL  = PAW_PBE Fe_pv 02Aug2007                                                                 
   LULTRA =        F    use ultrasoft PP ?                                                          
   IUNSCR =        1    unscreen: 0-lin 1-nonlin 2-no                                               
   RPACOR =    1.750    partial core radius                                                         
   POMASS =   55.847; ZVAL   =   14.000    mass and valenz                                          
   RCORE  =    2.200    outmost cutoff radius                                                       
   RWIGS  =    2.200; RWIGS  =    1.164    wigner-seitz radius (au A)                               
   ENMAX  =  293.238; ENMIN  =  219.928 eV                                                          
   ICORE  =        3    local potential                                                             
   LCOR   =        T    correct aug charges                                                         
   LPAW   =        T    paw PP                                                                      
   EAUG   =  578.342                                                                                
   DEXC   =    0.000                                                                                
   RMAX   =    2.249    core radius for proj-oper                                                   
   RAUG   =    1.300    factor for augmentation sphere                                              
   RDEP   =    2.296    radius for radial grids                                                     
   RDEPT  =    1.766    core radius for aug-charge                                                  
                                                                                                    
   Atomic configuration                                                                             
    8 entries                                                                                       
     n  l   j            E        occ.                                                              
     1  0  0.50     -6993.8440   2.0000                                                             
     2  0  0.50      -814.6047   2.0000                                                             
     2  1  1.50      -693.3689   6.0000                                                             
     3  0  0.50       -89.4732   2.0000                                                             
     3  1  1.50       -55.6373   6.0000                                                             
     3  2  2.50        -3.8151   7.0000                                                             
     4  0  0.50        -4.2551   1.0000                                                             
     4  3  2.50        -1.3606   0.0000                                                             
   Description                                                                                      
     l       E           TYP  RCUT    TYP  RCUT                                                     
     1    -55.6372668     23  2.000                                                                 
     1     -5.4423304     23  2.000                                                                 
     2     -3.8151096     23  2.200                                                                 
     2     -5.1756922     23  2.200                                                                 
     0     -4.2550951     23  2.200                                                                 
     0     27.2116520     23  2.200                                                                 
     3     -1.3605826     23  2.200                                                                 
  local pseudopotential read in
  partial core-charges read in
  partial kinetic energy density read in
  atomic valenz-charges read in
  non local Contribution for L=           1  read in
    real space projection operators read in
  non local Contribution for L=           1  read in
    real space projection operators read in
  non local Contribution for L=           2  read in
    real space projection operators read in
  non local Contribution for L=           2  read in
    real space projection operators read in
  non local Contribution for L=           0  read in
    real space projection operators read in
  non local Contribution for L=           0  read in
    real space projection operators read in
    PAW grid and wavefunctions read in
 
   number of l-projection  operators is LMAX  =           6
   number of lm-projection operators is LMMAX =          18
 
 POTCAR:    PAW_PBE Pt 04Feb2005                  
   SHA256 =  3ed90460adef76debcff1cfb73ee1349b515b1a3db03439735b44de3a8db7dc8 Pt/POTCAR             
   COPYR  = (c) Copyright 04Feb2005 Georg Kresse                                                    
   COPYR  = This file is part of the software VASP. Any use, copying, and all other rights are regul
   COPYR  = If you do not have a valid VASP license, you may not use, copy or distribute this file. 
   VRHFIN =Pt: s1d9                                                                                 
   LEXCH  = PE                                                                                      
   EATOM  =   729.1176 eV,   53.5886 Ry                                                             
                                                                                                    
   TITEL  = PAW_PBE Pt 04Feb2005                                                                    
   LULTRA =        F    use ultrasoft PP ?                                                          
   IUNSCR =        1    unscreen: 0-lin 1-nonlin 2-no                                               
   RPACOR =    2.330    partial core radius                                                         
   POMASS =  195.080; ZVAL   =   10.000    mass and valenz                                          
   RCORE  =    2.600    outmost cutoff radius                                                       
   RWIGS  =    2.750; RWIGS  =    1.455    wigner-seitz radius (au A)                               
   ENMAX  =  230.283; ENMIN  =  172.712 eV                                                          
   ICORE  =        3    local potential                                                             
   LCOR   =        T    correct aug charges                                                         
   LPAW   =        T    paw PP                                                                      
   EAUG   =  358.966                                                                                
   DEXC   =    0.000                                                                                
   RMAX   =    2.658    core radius for proj-oper                                                   
   RAUG   =    1.300    factor for augmentation sphere                                              
   RDEP   =    2.761    radius for radial grids                                                     
   RDEPT  =    2.203    core radius for aug-charge                                                  
                                                                                                    
   Atomic configuration                                                                             
   16 entries                                                                                       
     n  l   j            E        occ.                                                              
     1  0  0.50    -78401.1885   2.0000                                                             
     2  0  0.50    -13770.7750   2.0000                                                             
     2  1  1.50    -11931.0468   6.0000                                                             
     3  0  0.50     -3234.7234   2.0000                                                             
     3  1  1.50     -2699.2216   6.0000                                                             
     3  2  2.50     -2119.5714  10.0000                                                             
     4  0  0.50      -695.1528   2.0000                                                             
     4  1  1.50      -519.6034   6.0000                                                             
     4  2  2.50      -306.6786  10.0000                                                             
     4  3  3.50       -70.1041  14.0000                                                             
     5  0  0.50      -101.7747   2.0000                                                             
     5  1  1.50       -55.9873   6.0000                                                             
     5  2  2.50        -6.1423   9.0000                                                             
     6  0  0.50        -5.6573   1.0000                                                             
     6  1  1.50        -6.8029   0.0000                                                             
     5  3  2.50        -1.3606   0.0000                                                             
   Description                                                                                      
     l       E           TYP  RCUT    TYP  RCUT                                                     
     2     -6.1423404     23  2.500                                                                 
     2     -7.5029230     23  2.500                                                                 
     0     -5.6573207     23  2.500                                                                 
     0      0.7416693     23  2.500                                                                 
     1     -2.7211652     23  2.600                                                                 
     1     20.4087390     23  2.600                                                                 
     3     -1.3605826     23  2.500                                                                 
  local pseudopotential read in
  partial core-charges read in
  partial kinetic energy density read in
  atomic valenz-charges read in
  non local Contribution for L=           2  read in
    real space projection operators read in
  non local Contribution for L=           2  read in
    real space projection operators read in
  non local Contribution for L=           0  read in
    real space projection operators read in
  non local Contribution for L=           0  read in
    real space projection operators read in
  non local Contribution for L=           1  read in
    real space projection operators read in
  non local Contribution for L=           1  read in
    real space projection operators read in
    PAW grid and wavefunctions read in
 
   number of l-projection  operators is LMAX  =           6
   number of lm-projection operators is LMMAX =          18
 
  PAW_PBE Fe_pv 02Aug2007               :
 energy of atom  1       EATOM=-2457.4239
 kinetic energy error for atom=    0.0062 (will be added to EATOM!!)
  PAW_PBE Pt 04Feb2005                  :
 energy of atom  2       EATOM= -729.1176
 kinetic energy error for atom=    0.0032 (will be added to EATOM!!)
 
 
 POSCAR: Fe9 Pt3
  positions in direct lattice
  No initial velocities read in


 exchange-correlation table for PE
   RHO(1)=    0.500       N(1)  =     2000
   RHO(2)=  100.500       N(2)  =     4000
 


--------------------------------------------------------------------------------------------------------


 ion  position               nearest neighbor table
   1  0.000  0.500  0.166-   4 2.52   4 2.52  11 2.52  11 2.52   7 2.53   7 2.53   7 2.53   7 2.53
                            10 2.55  10 2.55   5 2.55   5 2.55
   2  0.000  0.500  0.499-   8 2.53   8 2.53   8 2.53   8 2.53   5 2.53   5 2.53   6 2.54   6 2.54
                            12 2.55  12 2.55  11 2.56  11 2.56
   3  0.000  0.500  0.835-  10 2.53  10 2.53   9 2.53   9 2.53   9 2.53   9 2.53  12 2.55  12 2.55
                             4 2.56   4 2.56   6 2.57   6 2.57
   4  0.500  0.500  0.003-   1 2.52   7 2.52   7 2.52   1 2.52  10 2.53  10 2.53  10 2.53  10 2.53
                             9 2.56   3 2.56   9 2.56   3 2.56
   5  0.500  0.500  0.334-  11 2.53  11 2.53  11 2.53  11 2.53   8 2.53   2 2.53   2 2.53   8 2.53
                             1 2.55   7 2.55   1 2.55   7 2.55
   6  0.500  0.500  0.665-  12 2.53  12 2.53  12 2.53  12 2.53   8 2.54   2 2.54   2 2.54   8 2.54
                             9 2.57   3 2.57   9 2.57   3 2.57
   7  0.500  0.000  0.166-   4 2.52   4 2.52  11 2.52  11 2.52   1 2.53   1 2.53   1 2.53   1 2.53
                            10 2.55  10 2.55   5 2.55   5 2.55
   8  0.500  0.000  0.499-   2 2.53   2 2.53   2 2.53   2 2.53   5 2.53   5 2.53   6 2.54   6 2.54
                            12 2.55  12 2.55  11 2.56  11 2.56
   9  0.500  0.000  0.835-  10 2.53  10 2.53   3 2.53   3 2.53   3 2.53   3 2.53  12 2.55  12 2.55
                             4 2.56   4 2.56   6 2.57   6 2.57
  10  0.000  0.000  0.999-   3 2.53   9 2.53   3 2.53   9 2.53   4 2.53   4 2.53   4 2.53   4 2.53
                             1 2.55   7 2.55   7 2.55   1 2.55
  11  0.000  0.000  0.330-   1 2.52   7 2.52   1 2.52   7 2.52   5 2.53   5 2.53   5 2.53   5 2.53
                             2 2.56   2 2.56   8 2.56   8 2.56
  12  0.000  0.000  0.667-   6 2.53   6 2.53   6 2.53   6 2.53   3 2.55   9 2.55   9 2.55   3 2.55
                             2 2.55   8 2.55   8 2.55   2 2.55
 
  LATTYP: Found a simple tetragonal cell.
 ALAT       =     3.5813116230
 C/A-ratio  =     3.0261361500
  
  Lattice vectors:
  
 A1 = (   3.5813116230,   0.0000000000,   0.0000000000)
 A2 = (   0.0000000000,   3.5813116230,   0.0000000000)
 A3 = (   0.0000000000,   0.0000000000,  10.8375365669)


Analysis of symmetry for initial positions (statically):
=====================================================================
 Subroutine PRICEL returns:
 Original cell was already a primitive cell.
 

 Routine SETGRP: Setting up the symmetry group for a 
 simple tetragonal supercell.


 Subroutine GETGRP returns: Found  8 space group operations
 (whereof  8 operations were pure point group operations)
 out of a pool of 16 trial point group operations.


The static configuration has the point symmetry C_4v.


Analysis of symmetry for dynamics (positions and initial velocities):
=====================================================================
 Subroutine PRICEL returns:
 Original cell was already a primitive cell.
 

 Routine SETGRP: Setting up the symmetry group for a 
 simple tetragonal supercell.


 Subroutine GETGRP returns: Found  8 space group operations
 (whereof  8 operations were pure point group operations)
 out of a pool of 16 trial point group operations.


The dynamic configuration has the point symmetry C_4v.


Analysis of structural, dynamic, and magnetic symmetry:
=====================================================================
 Subroutine PRICEL returns:
 Original cell was already a primitive cell.
 

 Routine SETGRP: Setting up the symmetry group for a 
 simple tetragonal supercell.


 Subroutine GETGRP returns: Found  8 space group operations
 (whereof  8 operations were pure point group operations)
 out of a pool of 16 trial point group operations.


The overall configuration has the point symmetry C_4v.


 Subroutine INISYM returns: Found  8 space group operations
 (whereof  8 operations are pure point group operations),
 and found     1 'primitive' translations


----------------------------------------------------------------------------------------

                                     Primitive cell                                     

  volume of cell :     139.0000

  direct lattice vectors                    reciprocal lattice vectors
     3.581311623  0.000000000  0.000000000     0.279227307  0.000000000  0.000000000
     0.000000000  3.581311623  0.000000000     0.000000000  0.279227307  0.000000000
     0.000000000  0.000000000 10.837536567     0.000000000  0.000000000  0.092271892

  length of vectors
     3.581311623  3.581311623 10.837536567     0.279227307  0.279227307  0.092271892

  position of ions in fractional coordinates (direct lattice)
     0.000000000  0.500000000  0.166469741
     0.000000000  0.500000000  0.499263223
     0.000000000  0.500000000  0.834695678
     0.500000000  0.500000000  0.003471204
     0.500000000  0.500000000  0.333927702
     0.500000000  0.500000000  0.665144097
     0.500000000  0.000000000  0.166469741
     0.500000000  0.000000000  0.499263223
     0.500000000  0.000000000  0.834695678
     0.000000000  0.000000000  0.999125369
     0.000000000  0.000000000  0.330371294
     0.000000000  0.000000000  0.667103049

  ion indices of the primitive-cell ions
   primitive index   ion index
                 1           1
                 2           2
                 3           3
                 4           4
                 5           5
                 6           6
                 7           7
                 8           8
                 9           9
                10          10
                11          11
                12          12

----------------------------------------------------------------------------------------

 
 
 KPOINTS: pymatgen with grid density = 8800 / numb

Automatic generation of k-mesh.
 Grid dimensions read from file:
 generate k-points for:   13   13    4

 Generating k-lattice:

  Cartesian coordinates                     Fractional coordinates (reciprocal lattice)
     0.021479024  0.000000000  0.000000000     0.076923077  0.000000000  0.000000000
     0.000000000  0.021479024  0.000000000     0.000000000  0.076923077  0.000000000
     0.000000000  0.000000000  0.023067973     0.000000000  0.000000000  0.250000000

  Length of vectors
     0.021479024  0.021479024  0.023067973

  Shift w.r.t. Gamma in fractional coordinates (k-lattice)
     0.000000000  0.000000000  0.000000000

 
 Subroutine IBZKPT returns following result:
 ===========================================
 
 Found     84 irreducible k-points:
 
 Following reciprocal coordinates:
            Coordinates               Weight
  0.000000  0.000000  0.000000      1.000000
  0.076923  0.000000  0.000000      4.000000
  0.153846  0.000000  0.000000      4.000000
  0.230769  0.000000  0.000000      4.000000
  0.307692  0.000000  0.000000      4.000000
  0.384615  0.000000  0.000000      4.000000
  0.461538  0.000000  0.000000      4.000000
  0.076923  0.076923  0.000000      4.000000
  0.153846  0.076923  0.000000      8.000000
  0.230769  0.076923  0.000000      8.000000
  0.307692  0.076923  0.000000      8.000000
  0.384615  0.076923  0.000000      8.000000
  0.461538  0.076923  0.000000      8.000000
  0.153846  0.153846  0.000000      4.000000
  0.230769  0.153846  0.000000      8.000000
  0.307692  0.153846  0.000000      8.000000
  0.384615  0.153846  0.000000      8.000000
  0.461538  0.153846  0.000000      8.000000
  0.230769  0.230769  0.000000      4.000000
  0.307692  0.230769  0.000000      8.000000
  0.384615  0.230769  0.000000      8.000000
  0.461538  0.230769  0.000000      8.000000
  0.307692  0.307692  0.000000      4.000000
  0.384615  0.307692  0.000000      8.000000
  0.461538  0.307692  0.000000      8.000000
  0.384615  0.384615  0.000000      4.000000
  0.461538  0.384615  0.000000      8.000000
  0.461538  0.461538  0.000000      4.000000
  0.000000  0.000000  0.250000      2.000000
  0.076923  0.000000  0.250000      8.000000
  0.153846  0.000000  0.250000      8.000000
  0.230769  0.000000  0.250000      8.000000
  0.307692  0.000000  0.250000      8.000000
  0.384615  0.000000  0.250000      8.000000
  0.461538  0.000000  0.250000      8.000000
  0.076923  0.076923  0.250000      8.000000
  0.153846  0.076923  0.250000     16.000000
  0.230769  0.076923  0.250000     16.000000
  0.307692  0.076923  0.250000     16.000000
  0.384615  0.076923  0.250000     16.000000
  0.461538  0.076923  0.250000     16.000000
  0.153846  0.153846  0.250000      8.000000
  0.230769  0.153846  0.250000     16.000000
  0.307692  0.153846  0.250000     16.000000
  0.384615  0.153846  0.250000     16.000000
  0.461538  0.153846  0.250000     16.000000
  0.230769  0.230769  0.250000      8.000000
  0.307692  0.230769  0.250000     16.000000
  0.384615  0.230769  0.250000     16.000000
  0.461538  0.230769  0.250000     16.000000
  0.307692  0.307692  0.250000      8.000000
  0.384615  0.307692  0.250000     16.000000
  0.461538  0.307692  0.250000     16.000000
  0.384615  0.384615  0.250000      8.000000
  0.461538  0.384615  0.250000     16.000000
  0.461538  0.461538  0.250000      8.000000
  0.000000  0.000000  0.500000      1.000000
  0.076923  0.000000  0.500000      4.000000
  0.153846  0.000000  0.500000      4.000000
  0.230769  0.000000  0.500000      4.000000
  0.307692  0.000000  0.500000      4.000000
  0.384615  0.000000  0.500000      4.000000
  0.461538  0.000000  0.500000      4.000000
  0.076923  0.076923  0.500000      4.000000
  0.153846  0.076923  0.500000      8.000000
  0.230769  0.076923  0.500000      8.000000
  0.307692  0.076923  0.500000      8.000000
  0.384615  0.076923  0.500000      8.000000
  0.461538  0.076923  0.500000      8.000000
  0.153846  0.153846  0.500000      4.000000
  0.230769  0.153846  0.500000      8.000000
  0.307692  0.153846  0.500000      8.000000
  0.384615  0.153846  0.500000      8.000000
  0.461538  0.153846  0.500000      8.000000
  0.230769  0.230769  0.500000      4.000000
  0.307692  0.230769  0.500000      8.000000
  0.384615  0.230769  0.500000      8.000000
  0.461538  0.230769  0.500000      8.000000
  0.307692  0.307692  0.500000      4.000000
  0.384615  0.307692  0.500000      8.000000
  0.461538  0.307692  0.500000      8.000000
  0.384615  0.384615  0.500000      4.000000
  0.461538  0.384615  0.500000      8.000000
  0.461538  0.461538  0.500000      4.000000
 
 Following cartesian coordinates:
            Coordinates               Weight
  0.000000  0.000000  0.000000      1.000000
  0.021479  0.000000  0.000000      4.000000
  0.042958  0.000000  0.000000      4.000000
  0.064437  0.000000  0.000000      4.000000
  0.085916  0.000000  0.000000      4.000000
  0.107395  0.000000  0.000000      4.000000
  0.128874  0.000000  0.000000      4.000000
  0.021479  0.021479  0.000000      4.000000
  0.042958  0.021479  0.000000      8.000000
  0.064437  0.021479  0.000000      8.000000
  0.085916  0.021479  0.000000      8.000000
  0.107395  0.021479  0.000000      8.000000
  0.128874  0.021479  0.000000      8.000000
  0.042958  0.042958  0.000000      4.000000
  0.064437  0.042958  0.000000      8.000000
  0.085916  0.042958  0.000000      8.000000
  0.107395  0.042958  0.000000      8.000000
  0.128874  0.042958  0.000000      8.000000
  0.064437  0.064437  0.000000      4.000000
  0.085916  0.064437  0.000000      8.000000
  0.107395  0.064437  0.000000      8.000000
  0.128874  0.064437  0.000000      8.000000
  0.085916  0.085916  0.000000      4.000000
  0.107395  0.085916  0.000000      8.000000
  0.128874  0.085916  0.000000      8.000000
  0.107395  0.107395  0.000000      4.000000
  0.128874  0.107395  0.000000      8.000000
  0.128874  0.128874  0.000000      4.000000
  0.000000  0.000000  0.023068      2.000000
  0.021479  0.000000  0.023068      8.000000
  0.042958  0.000000  0.023068      8.000000
  0.064437  0.000000  0.023068      8.000000
  0.085916  0.000000  0.023068      8.000000
  0.107395  0.000000  0.023068      8.000000
  0.128874  0.000000  0.023068      8.000000
  0.021479  0.021479  0.023068      8.000000
  0.042958  0.021479  0.023068     16.000000
  0.064437  0.021479  0.023068     16.000000
  0.085916  0.021479  0.023068     16.000000
  0.107395  0.021479  0.023068     16.000000
  0.128874  0.021479  0.023068     16.000000
  0.042958  0.042958  0.023068      8.000000
  0.064437  0.042958  0.023068     16.000000
  0.085916  0.042958  0.023068     16.000000
  0.107395  0.042958  0.023068     16.000000
  0.128874  0.042958  0.023068     16.000000
  0.064437  0.064437  0.023068      8.000000
  0.085916  0.064437  0.023068     16.000000
  0.107395  0.064437  0.023068     16.000000
  0.128874  0.064437  0.023068     16.000000
  0.085916  0.085916  0.023068      8.000000
  0.107395  0.085916  0.023068     16.000000
  0.128874  0.085916  0.023068     16.000000
  0.107395  0.107395  0.023068      8.000000
  0.128874  0.107395  0.023068     16.000000
  0.128874  0.128874  0.023068      8.000000
  0.000000  0.000000  0.046136      1.000000
  0.021479  0.000000  0.046136      4.000000
  0.042958  0.000000  0.046136      4.000000
  0.064437  0.000000  0.046136      4.000000
  0.085916  0.000000  0.046136      4.000000
  0.107395  0.000000  0.046136      4.000000
  0.128874  0.000000  0.046136      4.000000
  0.021479  0.021479  0.046136      4.000000
  0.042958  0.021479  0.046136      8.000000
  0.064437  0.021479  0.046136      8.000000
  0.085916  0.021479  0.046136      8.000000
  0.107395  0.021479  0.046136      8.000000
  0.128874  0.021479  0.046136      8.000000
  0.042958  0.042958  0.046136      4.000000
  0.064437  0.042958  0.046136      8.000000
  0.085916  0.042958  0.046136      8.000000
  0.107395  0.042958  0.046136      8.000000
  0.128874  0.042958  0.046136      8.000000
  0.064437  0.064437  0.046136      4.000000
  0.085916  0.064437  0.046136      8.000000
  0.107395  0.064437  0.046136      8.000000
  0.128874  0.064437  0.046136      8.000000
  0.085916  0.085916  0.046136      4.000000
  0.107395  0.085916  0.046136      8.000000
  0.128874  0.085916  0.046136      8.000000
  0.107395  0.107395  0.046136      4.000000
  0.128874  0.107395  0.046136      8.000000
  0.128874  0.128874  0.046136      4.000000
 


--------------------------------------------------------------------------------------------------------




 Dimension of arrays:
   k-points           NKPTS =     84   k-points in BZ     NKDIM =     84   number of bands    NBANDS=    128
   number of dos      NEDOS =    301   number of ions     NIONS =     12
   non local maximal  LDIM  =      6   non local SUM 2l+1 LMDIM =     18
   total plane-waves  NPLWV =  65856
   max r-space proj   IRMAX =      1   max aug-charges    IRDMAX=  28892
   dimension x,y,z NGX =    28 NGY =   28 NGZ =   84
   dimension x,y,z NGXF=    56 NGYF=   56 NGZF=  168
   support grid    NGXF=    56 NGYF=   56 NGZF=  168
   ions per type =               9   3
   NGX,Y,Z   is equivalent  to a cutoff of  13.00, 13.00, 12.89 a.u.
   NGXF,Y,Z  is equivalent  to a cutoff of  26.00, 26.00, 25.77 a.u.

 SYSTEM =  unknown system                          
 POSCAR =  Fe9 Pt3                                 

 Startparameter for this run:
   NWRITE =      2    write-flag & timer
   PREC   = accura    normal or accurate (medium, high low for compatibility)
   ISTART =      0    job   : 0-new  1-cont  2-samecut
   ICHARG =      2    charge: 1-file 2-atom 10-const
   ISPIN  =      2    spin polarized calculation?
   LNONCOLLINEAR =      F non collinear calculations
   LSORBIT =      F    spin-orbit coupling
   INIWAV =      1    electr: 0-lowe 1-rand  2-diag
   LASPH  =      F    aspherical Exc in radial PAW
 Electronic Relaxation 1
   ENCUT  =  520.0 eV  38.22 Ry    6.18 a.u.   6.66  6.66 20.15*2*pi/ulx,y,z
   ENINI  =  520.0     initial cutoff
   ENAUG  =  578.3 eV  augmentation charge cutoff
   NELM   =    200;   NELMIN=  2; NELMDL=  0     # of ELM steps 
   EDIFF  = 0.1E-05   stopping-criterion for ELM
   LREAL  =      F    real-space projection
   NLSPLINE    = F    spline interpolate recip. space projectors
   LCOMPAT=      F    compatible to vasp.4.4
   GGA_COMPAT  = T    GGA compatible to vasp.4.4-vasp.4.6
   LMAXPAW     = -100 max onsite density
   LMAXMIX     =    2 max onsite mixed and CHGCAR
   VOSKOWN=      0    Vosko Wilk Nusair interpolation
   ROPT   =    0.00000   0.00000
 Ionic relaxation
   EDIFFG = -.1E-01   stopping-criterion for IOM
   NSW    =    100    number of steps for IOM
   NBLOCK =      1;   KBLOCK =    100    inner block; outer block 
   IBRION =      2    ionic relax: 0-MD 1-quasi-New 2-CG
   NFREE  =      1    steps in history (QN), initial steepest desc. (CG)
   ISIF   =      4    stress and relaxation
   IWAVPR =     11    prediction:  0-non 1-charg 2-wave 3-comb
   ISYM   =      2    0-nonsym 1-usesym 2-fastsym
   LCORR  =      T    Harris-Foulkes like correction to forces

   POTIM  = 0.5000    time-step for ionic-motion
   TEIN   =    0.0    initial temperature
   TEBEG  =    0.0;   TEEND  =   0.0 temperature during run
   SMASS  =  -3.00    Nose mass-parameter (am)
   estimated Nose-frequenzy (Omega)   =  0.10E-29 period in steps = 0.13E+47 mass=  -0.293E-27a.u.
   SCALEE = 1.0000    scale energy and forces
   NPACO  =    256;   APACO  = 10.0  distance and # of slots for P.C.
   PSTRESS=    0.0 pullay stress

  Mass of Ions in am
   POMASS =  55.85195.08
  Ionic Valenz
   ZVAL   =  14.00 10.00
  Atomic Wigner-Seitz radii
   RWIGS  =  -1.00 -1.00
  virtual crystal weights 
   VCA    =   1.00  1.00
   NELECT =     156.0000    total number of electrons
   NUPDOWN=      -1.0000    fix difference up-down

 DOS related values:
   EMIN   =  10.00;   EMAX   =-10.00  energy-range for DOS
   EFERMI =   0.00;   METHOD = LEGACY      
   ISMEAR =     1;   SIGMA  =   0.20  broadening in eV -4-tet -1-fermi 0-gaus

 Electronic relaxation 2 (details)
   IALGO  =     58    algorithm
   LDIAG  =      T    sub-space diagonalisation (order eigenvalues)
   LSUBROT=      F    optimize rotation matrix (better conditioning)
   TURBO    =      0    0=normal 1=particle mesh
   IRESTART =      0    0=no restart 2=restart with 2 vectors
   NREBOOT  =      0    no. of reboots
   NMIN     =      0    reboot dimension
   EREF     =   0.00    reference energy to select bands
   IMIX   =      4    mixing-type and parameters
     AMIX     =   0.40;   BMIX     =  1.00
     AMIX_MAG =   1.60;   BMIX_MAG =  1.00
     AMIN     =   0.10
     WC   =   100.;   INIMIX=   1;  MIXPRE=   1;  MAXMIX= -45

 Intra band minimization:
   WEIMIN = 0.0010     energy-eigenvalue tresh-hold
   EBREAK =  0.20E-08  absolut break condition
   DEPER  =   0.30     relativ break condition  

   TIME   =   0.40     timestep for ELM

  volume/ion in A,a.u.               =      11.58        78.17
  Fermi-wavevector in a.u.,A,eV,Ry     =   1.701289  3.214970 39.380489  2.894384
  Thomas-Fermi vector in A             =   2.781269
 
 Write flags
   LWAVE        =      F    write WAVECAR
   LDOWNSAMPLE  =      F    k-point downsampling of WAVECAR
   LCHARG       =      T    write CHGCAR
   LVTOT        =      F    write LOCPOT, total local potential
   LVHAR        =      F    write LOCPOT, Hartree potential only
   WRT_POTENTIAL= false  ! write potential to hdf5 file
   LELF         =      F    write electronic localiz. function (ELF)
   LORBIT       =     11    0 simple, 1 ext, 2 COOP (PROOUT), +10 PAW based schemes


 Dipole corrections
   LMONO      =      F    monopole corrections only (constant potential shift)
   LDIPOL     =      F    correct potential (dipole corrections)
   IDIPOL     =      0    1-x, 2-y, 3-z, 4-all directions 
   EPSILON    =  1.0000000 bulk dielectric constant
   LVACPOTAV  =      F  vacuum potentials using an averaging scheme for the charge density
   VACPOTFLAT =  0.1000000 required flatness to determine vacuum potential
 Exchange correlation treatment:
   GGA     = PE    functional components
   XC_C    = 1    coefficients multiplying the functional components
   LIBXC   =     F    Libxc                    
   VOSKOWN =     0    Vosko Wilk Nusair interpolation
   LHFCALC =     F    Hartree Fock is set to
   LHFONE  =     F    Hartree Fock one center treatment
   AEXX    =    0.0000 exact exchange contribution

 Parameters of functionals:
   PE:
     No parameter
 
 Van der Waals corrections
   IVDW    =     0    specifies the selected vdW correction

 Linear response parameters
   LEPSILON=     F    determine dielectric tensor
   LRPA    =     F    only Hartree local field effects (RPA)
   LNABLA  =     F    use nabla operator in PAW spheres
   LVEL    =     F    velocity operator in full k-point grid
   CSHIFT  =0.1000    complex shift for real part using Kramers Kronig
   OMEGAMAX=  -1.0    maximum frequency
   DEG_THRESHOLD= 0.2000000E-02 threshold for treating states as degnerate
   RTIME   =   -0.100 relaxation time in fs
  (WPLASMAI=    0.000 imaginary part of plasma frequency in eV, 0.658/RTIME)
   DFIELD  = 0.0000000 0.0000000 0.0000000 field for delta impulse in time
 
  Optional k-point grid parameters
   LKPOINTS_OPT  =     F    use optional k-point grid
   KPOINTS_OPT_MODE=     1    mode for optional k-point grid
 
 Orbital magnetization related:
   ORBITALMAG=     F  switch on orbital magnetization
   LCHIMAG   =     F  perturbation theory with respect to B field
   DQ        =  0.001000  dq finite difference perturbation B field
   LLRAUG    =     F  two centre corrections for induced B field
   LBONE     =     F  B-component reconstruction in AE one-centre
   LVGVCALC  =     T  calculate vGv susceptibility
   LVGVAPPL  =     F  apply vGv susceptibility instead of pGv for G=0

 Random number generation:
   RANDOM_GENERATOR = DEFAULT
   PCG_SEED         = not used


--------------------------------------------------------------------------------------------------------


 conjugate gradient relaxation of ions
 charge density and potential will be updated during run
 spin polarized calculation
 Conjugate gradient for all bands (Freysoldt, et al. PRB 79, 241103 (2009))
 preconditioned conjugated gradient                                        
 perform sub-space diagonalisation
    before iterative eigenvector-optimisation
 modified Broyden-mixing scheme, WC =      100.0
 initial mixing is a Kerker type mixing with AMIX =  0.4000 and BMIX =      1.0000
 Hartree-type preconditioning will be used
 using additional bands           50
 reciprocal scheme for non local part
 use partial core corrections
 no Harris-corrections to forces 
 use gradient corrections 
 use of overlap-Matrix (Vanderbilt PP)
 Methfessel and Paxton  Order N= 1 SIGMA  =   0.20


--------------------------------------------------------------------------------------------------------


  energy-cutoff  :      520.00
  volume of cell :      139.00
      direct lattice vectors                 reciprocal lattice vectors
     3.581311623  0.000000000  0.000000000     0.279227307  0.000000000  0.000000000
     0.000000000  3.581311623  0.000000000     0.000000000  0.279227307  0.000000000
     0.000000000  0.000000000 10.837536567     0.000000000  0.000000000  0.092271892

  length of vectors
     3.581311623  3.581311623 10.837536567     0.279227307  0.279227307  0.092271892


 
 k-points in units of 2pi/SCALE and weight: pymatgen with grid density = 8800 / numb
   0.00000000  0.00000000  0.00000000       0.001
   0.02147902  0.00000000  0.00000000       0.006
   0.04295805  0.00000000  0.00000000       0.006
   0.06443707  0.00000000  0.00000000       0.006
   0.08591609  0.00000000  0.00000000       0.006
   0.10739512  0.00000000  0.00000000       0.006
   0.12887414  0.00000000  0.00000000       0.006
   0.02147902  0.02147902  0.00000000       0.006
   0.04295805  0.02147902  0.00000000       0.012
   0.06443707  0.02147902  0.00000000       0.012
   0.08591609  0.02147902  0.00000000       0.012
   0.10739512  0.02147902  0.00000000       0.012
   0.12887414  0.02147902  0.00000000       0.012
   0.04295805  0.04295805  0.00000000       0.006
   0.06443707  0.04295805  0.00000000       0.012
   0.08591609  0.04295805  0.00000000       0.012
   0.10739512  0.04295805  0.00000000       0.012
   0.12887414  0.04295805  0.00000000       0.012
   0.06443707  0.06443707  0.00000000       0.006
   0.08591609  0.06443707  0.00000000       0.012
   0.10739512  0.06443707  0.00000000       0.012
   0.12887414  0.06443707  0.00000000       0.012
   0.08591609  0.08591609  0.00000000       0.006
   0.10739512  0.08591609  0.00000000       0.012
   0.12887414  0.08591609  0.00000000       0.012
   0.10739512  0.10739512  0.00000000       0.006
   0.12887414  0.10739512  0.00000000       0.012
   0.12887414  0.12887414  0.00000000       0.006
   0.00000000  0.00000000  0.02306797       0.003
   0.02147902  0.00000000  0.02306797       0.012
   0.04295805  0.00000000  0.02306797       0.012
   0.06443707  0.00000000  0.02306797       0.012
   0.08591609  0.00000000  0.02306797       0.012
   0.10739512  0.00000000  0.02306797       0.012
   0.12887414  0.00000000  0.02306797       0.012
   0.02147902  0.02147902  0.02306797       0.012
   0.04295805  0.02147902  0.02306797       0.024
   0.06443707  0.02147902  0.02306797       0.024
   0.08591609  0.02147902  0.02306797       0.024
   0.10739512  0.02147902  0.02306797       0.024
   0.12887414  0.02147902  0.02306797       0.024
   0.04295805  0.04295805  0.02306797       0.012
   0.06443707  0.04295805  0.02306797       0.024
   0.08591609  0.04295805  0.02306797       0.024
   0.10739512  0.04295805  0.02306797       0.024
   0.12887414  0.04295805  0.02306797       0.024
   0.06443707  0.06443707  0.02306797       0.012
   0.08591609  0.06443707  0.02306797       0.024
   0.10739512  0.06443707  0.02306797       0.024
   0.12887414  0.06443707  0.02306797       0.024
   0.08591609  0.08591609  0.02306797       0.012
   0.10739512  0.08591609  0.02306797       0.024
   0.12887414  0.08591609  0.02306797       0.024
   0.10739512  0.10739512  0.02306797       0.012
   0.12887414  0.10739512  0.02306797       0.024
   0.12887414  0.12887414  0.02306797       0.012
   0.00000000  0.00000000  0.04613595       0.001
   0.02147902  0.00000000  0.04613595       0.006
   0.04295805  0.00000000  0.04613595       0.006
   0.06443707  0.00000000  0.04613595       0.006
   0.08591609  0.00000000  0.04613595       0.006
   0.10739512  0.00000000  0.04613595       0.006
   0.12887414  0.00000000  0.04613595       0.006
   0.02147902  0.02147902  0.04613595       0.006
   0.04295805  0.02147902  0.04613595       0.012
   0.06443707  0.02147902  0.04613595       0.012
   0.08591609  0.02147902  0.04613595       0.012
   0.10739512  0.02147902  0.04613595       0.012
   0.12887414  0.02147902  0.04613595       0.012
   0.04295805  0.04295805  0.04613595       0.006
   0.06443707  0.04295805  0.04613595       0.012
   0.08591609  0.04295805  0.04613595       0.012
   0.10739512  0.04295805  0.04613595       0.012
   0.12887414  0.04295805  0.04613595       0.012
   0.06443707  0.06443707  0.04613595       0.006
   0.08591609  0.06443707  0.04613595       0.012
   0.10739512  0.06443707  0.04613595       0.012
   0.12887414  0.06443707  0.04613595       0.012
   0.08591609  0.08591609  0.04613595       0.006
   0.10739512  0.08591609  0.04613595       0.012
   0.12887414  0.08591609  0.04613595       0.012
   0.10739512  0.10739512  0.04613595       0.006
   0.12887414  0.10739512  0.04613595       0.012
   0.12887414  0.12887414  0.04613595       0.006
 
 k-points in reciprocal lattice and weights: pymatgen with grid density = 8800 / numb
   0.00000000  0.00000000  0.00000000       0.001
   0.07692308  0.00000000  0.00000000       0.006
   0.15384615  0.00000000  0.00000000       0.006
   0.23076923  0.00000000  0.00000000       0.006
   0.30769231  0.00000000  0.00000000       0.006
   0.38461538  0.00000000  0.00000000       0.006
   0.46153846  0.00000000  0.00000000       0.006
   0.07692308  0.07692308  0.00000000       0.006
   0.15384615  0.07692308  0.00000000       0.012
   0.23076923  0.07692308  0.00000000       0.012
   0.30769231  0.07692308  0.00000000       0.012
   0.38461538  0.07692308  0.00000000       0.012
   0.46153846  0.07692308  0.00000000       0.012
   0.15384615  0.15384615  0.00000000       0.006
   0.23076923  0.15384615  0.00000000       0.012
   0.30769231  0.15384615  0.00000000       0.012
   0.38461538  0.15384615  0.00000000       0.012
   0.46153846  0.15384615  0.00000000       0.012
   0.23076923  0.23076923  0.00000000       0.006
   0.30769231  0.23076923  0.00000000       0.012
   0.38461538  0.23076923  0.00000000       0.012
   0.46153846  0.23076923  0.00000000       0.012
   0.30769231  0.30769231  0.00000000       0.006
   0.38461538  0.30769231  0.00000000       0.012
   0.46153846  0.30769231  0.00000000       0.012
   0.38461538  0.38461538  0.00000000       0.006
   0.46153846  0.38461538  0.00000000       0.012
   0.46153846  0.46153846  0.00000000       0.006
   0.00000000  0.00000000  0.25000000       0.003
   0.07692308  0.00000000  0.25000000       0.012
   0.15384615  0.00000000  0.25000000       0.012
   0.23076923  0.00000000  0.25000000       0.012
   0.30769231  0.00000000  0.25000000       0.012
   0.38461538  0.00000000  0.25000000       0.012
   0.46153846  0.00000000  0.25000000       0.012
   0.07692308  0.07692308  0.25000000       0.012
   0.15384615  0.07692308  0.25000000       0.024
   0.23076923  0.07692308  0.25000000       0.024
   0.30769231  0.07692308  0.25000000       0.024
   0.38461538  0.07692308  0.25000000       0.024
   0.46153846  0.07692308  0.25000000       0.024
   0.15384615  0.15384615  0.25000000       0.012
   0.23076923  0.15384615  0.25000000       0.024
   0.30769231  0.15384615  0.25000000       0.024
   0.38461538  0.15384615  0.25000000       0.024
   0.46153846  0.15384615  0.25000000       0.024
   0.23076923  0.23076923  0.25000000       0.012
   0.30769231  0.23076923  0.25000000       0.024
   0.38461538  0.23076923  0.25000000       0.024
   0.46153846  0.23076923  0.25000000       0.024
   0.30769231  0.30769231  0.25000000       0.012
   0.38461538  0.30769231  0.25000000       0.024
   0.46153846  0.30769231  0.25000000       0.024
   0.38461538  0.38461538  0.25000000       0.012
   0.46153846  0.38461538  0.25000000       0.024
   0.46153846  0.46153846  0.25000000       0.012
   0.00000000  0.00000000  0.50000000       0.001
   0.07692308  0.00000000  0.50000000       0.006
   0.15384615  0.00000000  0.50000000       0.006
   0.23076923  0.00000000  0.50000000       0.006
   0.30769231  0.00000000  0.50000000       0.006
   0.38461538  0.00000000  0.50000000       0.006
   0.46153846  0.00000000  0.50000000       0.006
   0.07692308  0.07692308  0.50000000       0.006
   0.15384615  0.07692308  0.50000000       0.012
   0.23076923  0.07692308  0.50000000       0.012
   0.30769231  0.07692308  0.50000000       0.012
   0.38461538  0.07692308  0.50000000       0.012
   0.46153846  0.07692308  0.50000000       0.012
   0.15384615  0.15384615  0.50000000       0.006
   0.23076923  0.15384615  0.50000000       0.012
   0.30769231  0.15384615  0.50000000       0.012
   0.38461538  0.15384615  0.50000000       0.012
   0.46153846  0.15384615  0.50000000       0.012
   0.23076923  0.23076923  0.50000000       0.006
   0.30769231  0.23076923  0.50000000       0.012
   0.38461538  0.23076923  0.50000000       0.012
   0.46153846  0.23076923  0.50000000       0.012
   0.30769231  0.30769231  0.50000000       0.006
   0.38461538  0.30769231  0.50000000       0.012
   0.46153846  0.30769231  0.50000000       0.012
   0.38461538  0.38461538  0.50000000       0.006
   0.46153846  0.38461538  0.50000000       0.012
   0.46153846  0.46153846  0.50000000       0.006
 
 position of ions in fractional coordinates (direct lattice) 
   0.00000000  0.50000000  0.16646974
   0.00000000  0.50000000  0.49926322
   0.00000000  0.50000000  0.83469568
   0.50000000  0.50000000  0.00347120
   0.50000000  0.50000000  0.33392770
   0.50000000  0.50000000  0.66514410
   0.50000000  0.00000000  0.16646974
   0.50000000  0.00000000  0.49926322
   0.50000000  0.00000000  0.83469568
   0.00000000  0.00000000  0.99912537
   0.00000000  0.00000000  0.33037129
   0.00000000  0.00000000  0.66710305
 
 position of ions in cartesian coordinates  (Angst):
   0.00000000  1.79065581  1.80412191
   0.00000000  1.79065581  5.41078344
   0.00000000  1.79065581  9.04604493
   1.79065581  1.79065581  0.03761930
   1.79065581  1.79065581  3.61895368
   1.79065581  1.79065581  7.20852347
   1.79065581  0.00000000  1.80412191
   1.79065581  0.00000000  5.41078344
   1.79065581  0.00000000  9.04604493
   0.00000000  0.00000000 10.82805772
   0.00000000  0.00000000  3.58041098
   0.00000000  0.00000000  7.22975369
 


--------------------------------------------------------------------------------------------------------


 k-point     1 :   0.0000 0.0000 0.0000  plane waves:    3713
 k-point     2 :   0.0769 0.0000 0.0000  plane waves:    3753
 k-point     3 :   0.1538 0.0000 0.0000  plane waves:    3767
 k-point     4 :   0.2308 0.0000 0.0000  plane waves:    3755
 k-point     5 :   0.3077 0.0000 0.0000  plane waves:    3757
 k-point     6 :   0.3846 0.0000 0.0000  plane waves:    3738
 k-point     7 :   0.4615 0.0000 0.0000  plane waves:    3740
 k-point     8 :   0.0769 0.0769 0.0000  plane waves:    3757
 k-point     9 :   0.1538 0.0769 0.0000  plane waves:    3760
 k-point    10 :   0.2308 0.0769 0.0000  plane waves:    3760
 k-point    11 :   0.3077 0.0769 0.0000  plane waves:    3744
 k-point    12 :   0.3846 0.0769 0.0000  plane waves:    3739
 k-point    13 :   0.4615 0.0769 0.0000  plane waves:    3737
 k-point    14 :   0.1538 0.1538 0.0000  plane waves:    3763
 k-point    15 :   0.2308 0.1538 0.0000  plane waves:    3750
 k-point    16 :   0.3077 0.1538 0.0000  plane waves:    3737
 k-point    17 :   0.3846 0.1538 0.0000  plane waves:    3724
 k-point    18 :   0.4615 0.1538 0.0000  plane waves:    3728
 k-point    19 :   0.2308 0.2308 0.0000  plane waves:    3769
 k-point    20 :   0.3077 0.2308 0.0000  plane waves:    3738
 k-point    21 :   0.3846 0.2308 0.0000  plane waves:    3724
 k-point    22 :   0.4615 0.2308 0.0000  plane waves:    3717
 k-point    23 :   0.3077 0.3077 0.0000  plane waves:    3746
 k-point    24 :   0.3846 0.3077 0.0000  plane waves:    3744
 k-point    25 :   0.4615 0.3077 0.0000  plane waves:    3731
 k-point    26 :   0.3846 0.3846 0.0000  plane waves:    3732
 k-point    27 :   0.4615 0.3846 0.0000  plane waves:    3741
 k-point    28 :   0.4615 0.4615 0.0000  plane waves:    3764
 k-point    29 :   0.0000 0.0000 0.2500  plane waves:    3748
 k-point    30 :   0.0769 0.0000 0.2500  plane waves:    3751
 k-point    31 :   0.1538 0.0000 0.2500  plane waves:    3760
 k-point    32 :   0.2308 0.0000 0.2500  plane waves:    3760
 k-point    33 :   0.3077 0.0000 0.2500  plane waves:    3747
 k-point    34 :   0.3846 0.0000 0.2500  plane waves:    3735
 k-point    35 :   0.4615 0.0000 0.2500  plane waves:    3736
 k-point    36 :   0.0769 0.0769 0.2500  plane waves:    3755
 k-point    37 :   0.1538 0.0769 0.2500  plane waves:    3764
 k-point    38 :   0.2308 0.0769 0.2500  plane waves:    3762
 k-point    39 :   0.3077 0.0769 0.2500  plane waves:    3744
 k-point    40 :   0.3846 0.0769 0.2500  plane waves:    3732
 k-point    41 :   0.4615 0.0769 0.2500  plane waves:    3739
 k-point    42 :   0.1538 0.1538 0.2500  plane waves:    3756
 k-point    43 :   0.2308 0.1538 0.2500  plane waves:    3744
 k-point    44 :   0.3077 0.1538 0.2500  plane waves:    3735
 k-point    45 :   0.3846 0.1538 0.2500  plane waves:    3732
 k-point    46 :   0.4615 0.1538 0.2500  plane waves:    3730
 k-point    47 :   0.2308 0.2308 0.2500  plane waves:    3743
 k-point    48 :   0.3077 0.2308 0.2500  plane waves:    3743
 k-point    49 :   0.3846 0.2308 0.2500  plane waves:    3728
 k-point    50 :   0.4615 0.2308 0.2500  plane waves:    3741
 k-point    51 :   0.3077 0.3077 0.2500  plane waves:    3730
 k-point    52 :   0.3846 0.3077 0.2500  plane waves:    3741
 k-point    53 :   0.4615 0.3077 0.2500  plane waves:    3731
 k-point    54 :   0.3846 0.3846 0.2500  plane waves:    3749
 k-point    55 :   0.4615 0.3846 0.2500  plane waves:    3741
 k-point    56 :   0.4615 0.4615 0.2500  plane waves:    3740
 k-point    57 :   0.0000 0.0000 0.5000  plane waves:    3768
 k-point    58 :   0.0769 0.0000 0.5000  plane waves:    3772
 k-point    59 :   0.1538 0.0000 0.5000  plane waves:    3758
 k-point    60 :   0.2308 0.0000 0.5000  plane waves:    3764
 k-point    61 :   0.3077 0.0000 0.5000  plane waves:    3750
 k-point    62 :   0.3846 0.0000 0.5000  plane waves:    3730
 k-point    63 :   0.4615 0.0000 0.5000  plane waves:    3732
 k-point    64 :   0.0769 0.0769 0.5000  plane waves:    3776
 k-point    65 :   0.1538 0.0769 0.5000  plane waves:    3762
 k-point    66 :   0.2308 0.0769 0.5000  plane waves:    3752
 k-point    67 :   0.3077 0.0769 0.5000  plane waves:    3732
 k-point    68 :   0.3846 0.0769 0.5000  plane waves:    3736
 k-point    69 :   0.4615 0.0769 0.5000  plane waves:    3740
 k-point    70 :   0.1538 0.1538 0.5000  plane waves:    3750
 k-point    71 :   0.2308 0.1538 0.5000  plane waves:    3744
 k-point    72 :   0.3077 0.1538 0.5000  plane waves:    3738
 k-point    73 :   0.3846 0.1538 0.5000  plane waves:    3740
 k-point    74 :   0.4615 0.1538 0.5000  plane waves:    3750
 k-point    75 :   0.2308 0.2308 0.5000  plane waves:    3736
 k-point    76 :   0.3077 0.2308 0.5000  plane waves:    3726
 k-point    77 :   0.3846 0.2308 0.5000  plane waves:    3748
 k-point    78 :   0.4615 0.2308 0.5000  plane waves:    3736
 k-point    79 :   0.3077 0.3077 0.5000  plane waves:    3728
 k-point    80 :   0.3846 0.3077 0.5000  plane waves:    3732
 k-point    81 :   0.4615 0.3077 0.5000  plane waves:    3726
 k-point    82 :   0.3846 0.3846 0.5000  plane waves:    3740
 k-point    83 :   0.4615 0.3846 0.5000  plane waves:    3746
 k-point    84 :   0.4615 0.4615 0.5000  plane waves:    3752

 maximum and minimum number of plane-waves per node :      3776     3713

 maximum number of plane-waves:      3776
 maximum index in each direction: 
   IXMAX=    6   IYMAX=    6   IZMAX=   20
   IXMIN=   -7   IYMIN=   -7   IZMIN=  -20


 serial   3D FFT for wavefunctions
 parallel 3D FFT for charge:
    minimum data exchange during FFTs selected (reduces bandwidth)


 total amount of memory used by VASP MPI-rank0   259171. kBytes
=======================================================================

   base      :      30000. kBytes
   nonl-proj :      92073. kBytes
   fftplans  :        888. kBytes
   grid      :       6813. kBytes
   one-center:        373. kBytes
   wavefun   :     129024. kBytes
 
     INWAV:  cpu time      0.0001: real time      0.0001
 Broyden mixing: mesh for mixing (old mesh)
   NGX = 13   NGY = 13   NGZ = 41
  (NGX  = 56   NGY  = 56   NGZ  =168)
  gives a total of   6929 points

 initial charge density was supplied:
 charge density of overlapping atoms calculated
 number of electron     156.0000000 magnetization       7.9180000
 charge density for first step will be calculated from the start-wavefunctions


--------------------------------------------------------------------------------------------------------


 Maximum index for augmentation-charges         1106 (set IRDMAX)


--------------------------------------------------------------------------------------------------------


 First call to EWALD:  gamma=   0.342
 Maximum number of real-space cells 4x 4x 2
 Maximum number of reciprocal cells 2x 2x 5

    FEWALD:  cpu time      0.0016: real time      0.0016


--------------------------------------- Ionic step        1  -------------------------------------------




--------------------------------------- Iteration      1(   1)  ---------------------------------------


    POTLOK:  cpu time      0.0278: real time      0.0280
    SETDIJ:  cpu time      0.0184: real time      0.0185
    TRIAL :  cpu time      5.8421: real time      5.8853
    CORREC:  cpu time      0.0026: real time      0.0027
    --------------------------------------------
      LOOP:  cpu time      6.0077: real time      6.0537

 eigenvalue-minimisations  : 43360
 total energy-change (2. order) : 0.1757192E+04  (-0.9145639E+04)
 number of electron     156.0000000 magnetization       7.9180000
 augmentation part      156.0000000 magnetization       7.9180000

 Free energy of the ion-electron system (eV)
  ---------------------------------------------------
  alpha Z        PSCENC =      1224.38942132
  Ewald energy   TEWEN  =    -18799.37231605
  -Hartree energ DENC   =     -5642.42219696
  -exchange      EXHF   =         0.00000000
  -V(xc)+E(xc)   XCENC  =       660.81555062
  PAW double counting   =     20095.68125881   -20819.76916870
  entropy T*S    EENTRO =        -0.00095482
  eigenvalues    EBANDS =       733.76761159
  atomic energy  EATOM  =     24304.10294433
  ---------------------------------------------------
  free energy    TOTEN  =      1757.19215014 eV

  energy without entropy =     1757.19310496  energy(sigma->0) =     1757.19246842


--------------------------------------------------------------------------------------------------------




--------------------------------------- Iteration      1(   2)  ---------------------------------------


    TRIAL :  cpu time      5.4538: real time      5.4936
    CORREC:  cpu time      0.0025: real time      0.0025
    --------------------------------------------
      LOOP:  cpu time      5.4644: real time      5.5184

 eigenvalue-minimisations  : 43008
 total energy-change (2. order) :-0.1751285E+04  (-0.1661434E+04)
 number of electron     156.0000000 magnetization       7.9180000
 augmentation part      156.0000000 magnetization       7.9180000

 Free energy of the ion-electron system (eV)
  ---------------------------------------------------
  alpha Z        PSCENC =      1224.38942132
  Ewald energy   TEWEN  =    -18799.37231605
  -Hartree energ DENC   =     -5642.42219696
  -exchange      EXHF   =         0.00000000
  -V(xc)+E(xc)   XCENC  =       660.81555062
  PAW double counting   =     20095.68125881   -20819.76916870
  entropy T*S    EENTRO =         0.00357077
  eigenvalues    EBANDS =     -1017.52161562
  atomic energy  EATOM  =     24304.10294433
  ---------------------------------------------------
  free energy    TOTEN  =         5.90744852 eV

  energy without entropy =        5.90387775  energy(sigma->0) =        5.90625826


--------------------------------------------------------------------------------------------------------




--------------------------------------- Iteration      1(   3)  ---------------------------------------


    TRIAL :  cpu time      6.7180: real time      6.7632
    CORREC:  cpu time      0.0025: real time      0.0025
    --------------------------------------------
      LOOP:  cpu time      6.7437: real time      6.7892

 eigenvalue-minimisations  : 51072
 total energy-change (2. order) :-0.1088337E+03  (-0.1075491E+03)
 number of electron     156.0000000 magnetization       7.9180000
 augmentation part      156.0000000 magnetization       7.9180000

 Free energy of the ion-electron system (eV)
  ---------------------------------------------------
  alpha Z        PSCENC =      1224.38942132
  Ewald energy   TEWEN  =    -18799.37231605
  -Hartree energ DENC   =     -5642.42219696
  -exchange      EXHF   =         0.00000000
  -V(xc)+E(xc)   XCENC  =       660.81555062
  PAW double counting   =     20095.68125881   -20819.76916870
  entropy T*S    EENTRO =         0.00459471
  eigenvalues    EBANDS =     -1126.35636155
  atomic energy  EATOM  =     24304.10294433
  ---------------------------------------------------
  free energy    TOTEN  =      -102.92627347 eV

  energy without entropy =     -102.93086818  energy(sigma->0) =     -102.92780504


--------------------------------------------------------------------------------------------------------




--------------------------------------- Iteration      1(   4)  ---------------------------------------


    TRIAL :  cpu time      5.7069: real time      5.7469
    CORREC:  cpu time      0.0026: real time      0.0027
    --------------------------------------------
      LOOP:  cpu time      5.7169: real time      5.7716

 eigenvalue-minimisations  : 45440
 total energy-change (2. order) :-0.1473306E+01  (-0.1473042E+01)
 number of electron     156.0000000 magnetization       7.9180000
 augmentation part      156.0000000 magnetization       7.9180000

 Free energy of the ion-electron system (eV)
  ---------------------------------------------------
  alpha Z        PSCENC =      1224.38942132
  Ewald energy   TEWEN  =    -18799.37231605
  -Hartree energ DENC   =     -5642.42219696
  -exchange      EXHF   =         0.00000000
  -V(xc)+E(xc)   XCENC  =       660.81555062
  PAW double counting   =     20095.68125881   -20819.76916870
  entropy T*S    EENTRO =         0.00454099
  eigenvalues    EBANDS =     -1127.82961432
  atomic energy  EATOM  =     24304.10294433
  ---------------------------------------------------
  free energy    TOTEN  =      -104.39957996 eV

  energy without entropy =     -104.40412095  energy(sigma->0) =     -104.40109362


--------------------------------------------------------------------------------------------------------




--------------------------------------- Iteration      1(   5)  ---------------------------------------


    TRIAL :  cpu time      7.0126: real time      7.0618
    CORREC:  cpu time      0.0025: real time      0.0026
    CHARGE:  cpu time      0.1716: real time      0.1735
    --------------------------------------------
      LOOP:  cpu time      7.1960: real time      7.2610

 eigenvalue-minimisations  : 53376
 total energy-change (2. order) :-0.2540759E-01  (-0.2540668E-01)
 number of electron     155.9999827 magnetization       6.2686979
 augmentation part       79.3180089 magnetization       4.5324128

 Free energy of the ion-electron system (eV)
  ---------------------------------------------------
  alpha Z        PSCENC =      1224.38942132
  Ewald energy   TEWEN  =    -18799.37231605
  -Hartree energ DENC   =     -5642.42219696
  -exchange      EXHF   =         0.00000000
  -V(xc)+E(xc)   XCENC  =       660.81555062
  PAW double counting   =     20095.68125881   -20819.76916870
  entropy T*S    EENTRO =         0.00454044
  eigenvalues    EBANDS =     -1127.85502136
  atomic energy  EATOM  =     24304.10294433
  ---------------------------------------------------
  free energy    TOTEN  =      -104.42498755 eV

  energy without entropy =     -104.42952798  energy(sigma->0) =     -104.42650103


--------------------------------------------------------------------------------------------------------




--------------------------------------- Iteration      1(   6)  ---------------------------------------


    POTLOK:  cpu time      0.0218: real time      0.0219
    SETDIJ:  cpu time      0.0080: real time      0.0080
    TRIAL :  cpu time      2.6575: real time      2.6871
    CORREC:  cpu time      1.0894: real time      1.1003
    CHARGE:  cpu time      0.1609: real time      0.1619
    --------------------------------------------
      LOOP:  cpu time      3.9470: real time      4.0007

 eigenvalue-minimisations  :     0
 total energy-change (2. order) : 0.4672569E+02  (-0.9370269E+01)
 number of electron     155.9999826 magnetization       6.2215992
 augmentation part       80.2030219 magnetization       4.4866595

 Free energy of the ion-electron system (eV)
  ---------------------------------------------------
  alpha Z        PSCENC =      1224.38942132
  Ewald energy   TEWEN  =    -18799.37231605
  -Hartree energ DENC   =     -4615.11903202
  -exchange      EXHF   =         0.00000000
  -V(xc)+E(xc)   XCENC  =       616.56418339
  PAW double counting   =     22251.49458538   -22926.54645779
  entropy T*S    EENTRO =        -0.00503844
  eigenvalues    EBANDS =     -2113.21716255
  atomic energy  EATOM  =     24304.10294433
  ---------------------------------------------------
  free energy    TOTEN  =       -57.69929355 eV

  energy without entropy =      -57.69425511  energy(sigma->0) =      -57.69761407


--------------------------------------------------------------------------------------------------------




--------------------------------------- Iteration      1(   7)  ---------------------------------------


    POTLOK:  cpu time      0.0217: real time      0.0219
    SETDIJ:  cpu time      0.0076: real time      0.0077
    TRIAL :  cpu time      2.7207: real time      2.7494
    CORREC:  cpu time      1.0741: real time      1.0855
    CHARGE:  cpu time      0.1569: real time      0.1578
    --------------------------------------------
      LOOP:  cpu time      3.9895: real time      4.0453

 eigenvalue-minimisations  :     0
 total energy-change (2. order) :-0.1200563E+02  (-0.1332434E+02)
 number of electron     155.9999821 magnetization       6.3651033
 augmentation part       82.6312266 magnetization       4.7445740

 Free energy of the ion-electron system (eV)
  ---------------------------------------------------
  alpha Z        PSCENC =      1224.38942132
  Ewald energy   TEWEN  =    -18799.37231605
  -Hartree energ DENC   =     -4733.25797285
  -exchange      EXHF   =         0.00000000
  -V(xc)+E(xc)   XCENC  =       621.34352822
  PAW double counting   =     22289.17482078   -22986.98530805
  entropy T*S    EENTRO =        -0.00615650
  eigenvalues    EBANDS =     -1989.09500241
  atomic energy  EATOM  =     24304.10294433
  ---------------------------------------------------
  free energy    TOTEN  =       -69.70492315 eV

  energy without entropy =      -69.69876665  energy(sigma->0) =      -69.70287098


--------------------------------------------------------------------------------------------------------




--------------------------------------- Iteration      1(   8)  ---------------------------------------


    POTLOK:  cpu time      0.0211: real time      0.0214
    SETDIJ:  cpu time      0.0081: real time      0.0082
    TRIAL :  cpu time      2.5794: real time      2.6071
    CORREC:  cpu time      1.0917: real time      1.1028
    CHARGE:  cpu time      0.1543: real time      0.1552
    --------------------------------------------
      LOOP:  cpu time      3.8656: real time      3.9191

 eigenvalue-minimisations  :     0
 total energy-change (2. order) :-0.1530246E+02  (-0.2841335E+01)
 number of electron     155.9999820 magnetization       6.6022254
 augmentation part       83.5381775 magnetization       4.9478116

 Free energy of the ion-electron system (eV)
  ---------------------------------------------------
  alpha Z        PSCENC =      1224.38942132
  Ewald energy   TEWEN  =    -18799.37231605
  -Hartree energ DENC   =     -5060.76103157
  -exchange      EXHF   =         0.00000000
  -V(xc)+E(xc)   XCENC  =       635.03885575
  PAW double counting   =     22603.57308886   -23364.68123198
  entropy T*S    EENTRO =         0.00368064
  eigenvalues    EBANDS =     -1627.29095671
  atomic energy  EATOM  =     24304.10294433
  ---------------------------------------------------
  free energy    TOTEN  =       -85.00738256 eV

  energy without entropy =      -85.01106320  energy(sigma->0) =      -85.00860944


--------------------------------------------------------------------------------------------------------




--------------------------------------- Iteration      1(   9)  ---------------------------------------


    POTLOK:  cpu time      0.0211: real time      0.0213
    SETDIJ:  cpu time      0.0084: real time      0.0085
    TRIAL :  cpu time      2.7270: real time      2.7563
    CORREC:  cpu time      1.0868: real time      1.0981
    CHARGE:  cpu time      0.1524: real time      0.1538
    --------------------------------------------
      LOOP:  cpu time      4.0049: real time      4.0610

 eigenvalue-minimisations  :     0
 total energy-change (2. order) :-0.2705447E+01  (-0.7230234E+00)
 number of electron     155.9999820 magnetization       6.6935481
 augmentation part       83.8423159 magnetization       5.0042144

 Free energy of the ion-electron system (eV)
  ---------------------------------------------------
  alpha Z        PSCENC =      1224.38942132
  Ewald energy   TEWEN  =    -18799.37231605
  -Hartree energ DENC   =     -5178.21892305
  -exchange      EXHF   =         0.00000000
  -V(xc)+E(xc)   XCENC  =       640.16299450
  PAW double counting   =     22767.34366526   -23548.13845715
  entropy T*S    EENTRO =         0.00576227
  eigenvalues    EBANDS =     -1497.98583978
  atomic energy  EATOM  =     24304.10294433
  ---------------------------------------------------
  free energy    TOTEN  =       -87.71282998 eV

  energy without entropy =      -87.71859226  energy(sigma->0) =      -87.71475074


--------------------------------------------------------------------------------------------------------




--------------------------------------- Iteration      1(  10)  ---------------------------------------


    POTLOK:  cpu time      0.0215: real time      0.0217
    SETDIJ:  cpu time      0.0080: real time      0.0081
    TRIAL :  cpu time      2.5797: real time      2.6074
    CORREC:  cpu time      1.0753: real time      1.0877
    CHARGE:  cpu time      0.1557: real time      0.1567
    --------------------------------------------
      LOOP:  cpu time      3.8484: real time      3.9049

 eigenvalue-minimisations  :     0
 total energy-change (2. order) :-0.9360136E+00  (-0.6024717E+00)
 number of electron     155.9999820 magnetization       6.7466663
 augmentation part       84.0250844 magnetization       5.0390025

 Free energy of the ion-electron system (eV)
  ---------------------------------------------------
  alpha Z        PSCENC =      1224.38942132
  Ewald energy   TEWEN  =    -18799.37231605
  -Hartree energ DENC   =     -5216.63451148
  -exchange      EXHF   =         0.00000000
  -V(xc)+E(xc)   XCENC  =       641.83401719
  PAW double counting   =     22822.90931004   -23608.67256011
  entropy T*S    EENTRO =         0.00591811
  eigenvalues    EBANDS =     -1457.21091110
  atomic energy  EATOM  =     24304.10294433
  ---------------------------------------------------
  free energy    TOTEN  =       -88.64884360 eV

  energy without entropy =      -88.65476171  energy(sigma->0) =      -88.65081630


--------------------------------------------------------------------------------------------------------




--------------------------------------- Iteration      1(  11)  ---------------------------------------


    POTLOK:  cpu time      0.0214: real time      0.0216
    SETDIJ:  cpu time      0.0077: real time      0.0077
    TRIAL :  cpu time      2.6146: real time      2.6426
    CORREC:  cpu time      1.0803: real time      1.0924
    CHARGE:  cpu time      0.1526: real time      0.1534
    --------------------------------------------
      LOOP:  cpu time      3.8861: real time      3.9415

 eigenvalue-minimisations  :     0
 total energy-change (2. order) :-0.6543228E+00  (-0.1009065E+01)
 number of electron     155.9999820 magnetization       6.8269376
 augmentation part       84.3614776 magnetization       5.1291484

 Free energy of the ion-electron system (eV)
  ---------------------------------------------------
  alpha Z        PSCENC =      1224.38942132
  Ewald energy   TEWEN  =    -18799.37231605
  -Hartree energ DENC   =     -5235.60201764
  -exchange      EXHF   =         0.00000000
  -V(xc)+E(xc)   XCENC  =       642.72138688
  PAW double counting   =     22842.10766385   -23627.37956017
  entropy T*S    EENTRO =         0.01057381
  eigenvalues    EBANDS =     -1440.27660706
  atomic energy  EATOM  =     24304.10294433
  ---------------------------------------------------
  free energy    TOTEN  =       -89.30316645 eV

  energy without entropy =      -89.31374026  energy(sigma->0) =      -89.30669105


--------------------------------------------------------------------------------------------------------




--------------------------------------- Iteration      1(  12)  ---------------------------------------


    POTLOK:  cpu time      0.0218: real time      0.0220
    SETDIJ:  cpu time      0.0076: real time      0.0076
    TRIAL :  cpu time      2.7301: real time      2.7574
    CORREC:  cpu time      1.0775: real time      1.0901
    CHARGE:  cpu time      0.1518: real time      0.1526
    --------------------------------------------
      LOOP:  cpu time      3.9966: real time      4.0528

 eigenvalue-minimisations  :     0
 total energy-change (2. order) :-0.1262927E+01  (-0.3597173E+00)
 number of electron     155.9999820 magnetization       6.8527242
 augmentation part       84.4568364 magnetization       5.1672805

 Free energy of the ion-electron system (eV)
  ---------------------------------------------------
  alpha Z        PSCENC =      1224.38942132
  Ewald energy   TEWEN  =    -18799.37231605
  -Hartree energ DENC   =     -5263.83664349
  -exchange      EXHF   =         0.00000000
  -V(xc)+E(xc)   XCENC  =       644.27304975
  PAW double counting   =     22877.16827422   -23657.86705980
  entropy T*S    EENTRO =         0.01653854
  eigenvalues    EBANDS =     -1419.43433721
  atomic energy  EATOM  =     24304.10294433
  ---------------------------------------------------
  free energy    TOTEN  =       -90.56609313 eV

  energy without entropy =      -90.58263166  energy(sigma->0) =      -90.57160597


--------------------------------------------------------------------------------------------------------




--------------------------------------- Iteration      1(  13)  ---------------------------------------


    POTLOK:  cpu time      0.0215: real time      0.0217
    SETDIJ:  cpu time      0.0075: real time      0.0076
    TRIAL :  cpu time      2.6485: real time      2.6770
    CORREC:  cpu time      1.1693: real time      1.1836
    CHARGE:  cpu time      0.1512: real time      0.1521
    --------------------------------------------
      LOOP:  cpu time      4.0066: real time      4.0655

 eigenvalue-minimisations  :     0
 total energy-change (2. order) :-0.5282671E+00  (-0.2678453E+00)
 number of electron     155.9999820 magnetization       6.8850876
 augmentation part       84.4323222 magnetization       5.1973415

 Free energy of the ion-electron system (eV)
  ---------------------------------------------------
  alpha Z        PSCENC =      1224.38942132
  Ewald energy   TEWEN  =    -18799.37231605
  -Hartree energ DENC   =     -5270.55342303
  -exchange      EXHF   =         0.00000000
  -V(xc)+E(xc)   XCENC  =       644.71967780
  PAW double counting   =     22889.08073016   -23667.74079091
  entropy T*S    EENTRO =         0.01623564
  eigenvalues    EBANDS =     -1415.73714240
  atomic energy  EATOM  =     24304.10294433
  ---------------------------------------------------
  free energy    TOTEN  =       -91.09436024 eV

  energy without entropy =      -91.11059588  energy(sigma->0) =      -91.09977212


--------------------------------------------------------------------------------------------------------




--------------------------------------- Iteration      1(  14)  ---------------------------------------


    POTLOK:  cpu time      0.0214: real time      0.0216
    SETDIJ:  cpu time      0.0082: real time      0.0082
    TRIAL :  cpu time      2.7950: real time      2.8241
    CORREC:  cpu time      1.0796: real time      1.0929
    CHARGE:  cpu time      0.1519: real time      0.1528
    --------------------------------------------
      LOOP:  cpu time      4.0643: real time      4.1236

 eigenvalue-minimisations  :     0
 total energy-change (2. order) :-0.2362879E+00  (-0.2513167E+00)
 number of electron     155.9999820 magnetization       6.9839897
 augmentation part       84.3729196 magnetization       5.2484158

 Free energy of the ion-electron system (eV)
  ---------------------------------------------------
  alpha Z        PSCENC =      1224.38942132
  Ewald energy   TEWEN  =    -18799.37231605
  -Hartree energ DENC   =     -5266.96590046
  -exchange      EXHF   =         0.00000000
  -V(xc)+E(xc)   XCENC  =       644.61577824
  PAW double counting   =     22880.27859632   -23657.38119317
  entropy T*S    EENTRO =         0.01194034
  eigenvalues    EBANDS =     -1421.01421433
  atomic energy  EATOM  =     24304.10294433
  ---------------------------------------------------
  free energy    TOTEN  =       -91.33064817 eV

  energy without entropy =      -91.34258851  energy(sigma->0) =      -91.33462828


--------------------------------------------------------------------------------------------------------




--------------------------------------- Iteration      1(  15)  ---------------------------------------


    POTLOK:  cpu time      0.0212: real time      0.0214
    SETDIJ:  cpu time      0.0083: real time      0.0083
    TRIAL :  cpu time      2.6396: real time      2.6673
    CORREC:  cpu time      1.0912: real time      1.1036
    CHARGE:  cpu time      0.1518: real time      0.1528
    --------------------------------------------
      LOOP:  cpu time      3.9202: real time      3.9766

 eigenvalue-minimisations  :     0
 total energy-change (2. order) :-0.2434611E+00  (-0.5550840E+00)
 number of electron     155.9999821 magnetization       7.0415772
 augmentation part       84.2624041 magnetization       5.3148394

 Free energy of the ion-electron system (eV)
  ---------------------------------------------------
  alpha Z        PSCENC =      1224.38942132
  Ewald energy   TEWEN  =    -18799.37231605
  -Hartree energ DENC   =     -5261.43709480
  -exchange      EXHF   =         0.00000000
  -V(xc)+E(xc)   XCENC  =       644.36875549
  PAW double counting   =     22857.71163513   -23630.59492686
  entropy T*S    EENTRO =         0.00654695
  eigenvalues    EBANDS =     -1430.75446814
  atomic energy  EATOM  =     24304.10294433
  ---------------------------------------------------
  free energy    TOTEN  =       -91.57410926 eV

  energy without entropy =      -91.58065621  energy(sigma->0) =      -91.57629158


--------------------------------------------------------------------------------------------------------




--------------------------------------- Iteration      1(  16)  ---------------------------------------


    POTLOK:  cpu time      0.0213: real time      0.0215
    SETDIJ:  cpu time      0.0079: real time      0.0079
    TRIAL :  cpu time      2.6584: real time      2.6859
    CORREC:  cpu time      1.0856: real time      1.0985
    CHARGE:  cpu time      0.1505: real time      0.1518
    --------------------------------------------
      LOOP:  cpu time      3.9317: real time      3.9891

 eigenvalue-minimisations  :     0
 total energy-change (2. order) :-0.5560244E+00  (-0.8903610E-01)
 number of electron     155.9999821 magnetization       7.1121815
 augmentation part       84.3381506 magnetization       5.3609660

 Free energy of the ion-electron system (eV)
  ---------------------------------------------------
  alpha Z        PSCENC =      1224.38942132
  Ewald energy   TEWEN  =    -18799.37231605
  -Hartree energ DENC   =     -5252.25017722
  -exchange      EXHF   =         0.00000000
  -V(xc)+E(xc)   XCENC  =       644.00140925
  PAW double counting   =     22814.32266365   -23575.32032316
  entropy T*S    EENTRO =         0.00706090
  eigenvalues    EBANDS =     -1452.01030275
  atomic energy  EATOM  =     24304.10294433
  ---------------------------------------------------
  free energy    TOTEN  =       -92.13013368 eV

  energy without entropy =      -92.13719458  energy(sigma->0) =      -92.13248731


--------------------------------------------------------------------------------------------------------




--------------------------------------- Iteration      1(  17)  ---------------------------------------


    POTLOK:  cpu time      0.0220: real time      0.0222
    SETDIJ:  cpu time      0.0070: real time      0.0071
    TRIAL :  cpu time      2.7122: real time      2.7395
    CORREC:  cpu time      1.0873: real time      1.1001
    CHARGE:  cpu time      0.1515: real time      0.1524
    --------------------------------------------
      LOOP:  cpu time      3.9881: real time      4.0451

 eigenvalue-minimisations  :     0
 total energy-change (2. order) :-0.8737602E-01  (-0.1232034E+00)
 number of electron     155.9999821 magnetization       7.2042516
[...]
     78      11.7982     -0.01965
     79      11.8102     -0.01701
     80      12.0316     -0.00022
     81      12.0739     -0.00007
     82      12.2522     -0.00000
     83      12.3579     -0.00000
     84      12.4397     -0.00000
     85      12.4722     -0.00000
     86      12.6109     -0.00000
     87      12.6141     -0.00000
     88      13.0657     -0.00000
     89      13.1814     -0.00000
     90      13.2861     -0.00000
     91      13.3142     -0.00000
     92      13.5154     -0.00000
     93      13.9123     -0.00000
     94      13.9217     -0.00000
     95      14.0912     -0.00000
     96      14.5271     -0.00000
     97      14.5773     -0.00000
     98      14.6055     -0.00000
     99      15.1776     -0.00000
    100      17.5714      0.00000
    101      19.7664      0.00000
    102      19.8073      0.00000
    103      19.8761      0.00000
    104      20.6894      0.00000
    105      20.8478      0.00000
    106      21.4246      0.00000
    107      21.5537      0.00000
    108      21.9702      0.00000
    109      22.1249      0.00000
    110      22.5390      0.00000
    111      22.6146      0.00000
    112      27.0524      0.00000
    113      27.1398      0.00000
    114      27.5198      0.00000
    115      27.5430      0.00000
    116      27.9015      0.00000
    117      28.0298      0.00000
    118      28.9029      0.00000
    119      29.0387      0.00000
    120      29.5059      0.00000
    121      29.5458      0.00000
    122      29.5699      0.00000
    123      30.1435      0.00000
    124      31.2885      0.00000
    125      31.5211      0.00000
    126      31.7305      0.00000
    127      31.9193      0.00000
    128      32.7448      0.00000


--------------------------------------------------------------------------------------------------------


 soft charge-density along one line, spin component           1
         0         1         2         3         4         5         6         7         8         9
 total charge-density along one line
 
 soft charge-density along one line, spin component           2
         0         1         2         3         4         5         6         7         8         9
 total charge-density along one line
 
 pseudopotential strength for first ion, spin component:           1
-41.940   0.000  -0.000   6.348  -0.000   0.000   0.000  -0.001
  0.000 -41.973  -0.000  -0.000   6.361   0.000  -0.000   0.000
 -0.000  -0.000 -41.919   0.000   0.000   6.338   0.000  -0.000
  6.348  -0.000   0.000   5.956  -0.000   0.000  -0.000   0.001
 -0.000   6.361   0.000  -0.000   5.952   0.000   0.000  -0.000
  0.000   0.000   6.338   0.000   0.000   5.956  -0.000   0.000
  0.000  -0.000   0.000  -0.000   0.000  -0.000   0.339  -0.000
 -0.001   0.000  -0.000   0.001  -0.000   0.000  -0.000   0.352
 -0.000  -0.002  -0.000   0.000   0.002   0.000   0.000   0.000
 -0.000   0.000  -0.010   0.000  -0.000   0.006   0.000  -0.000
 -0.000  -0.004   0.000   0.000   0.003  -0.000   0.000  -0.000
  0.000  -0.000   0.000  -0.000   0.000  -0.000  -0.214  -0.000
 -0.001   0.000  -0.000   0.001  -0.000   0.000  -0.000  -0.201
 -0.000  -0.002  -0.000   0.000   0.002   0.000   0.000   0.000
 -0.000   0.000  -0.010   0.000  -0.000   0.006   0.000  -0.000
 -0.000  -0.004   0.000   0.000   0.003  -0.000   0.000  -0.000
 -0.000   0.003  -0.000  -0.000   0.001  -0.000   0.000  -0.000
 -0.000   0.008  -0.000  -0.000   0.003  -0.000   0.000  -0.000
 pseudopotential strength for first ion, spin component:           2
-43.647   0.000  -0.000   7.069  -0.000   0.000   0.000   0.004
  0.000 -43.714  -0.000  -0.000   7.095   0.000  -0.000   0.000
 -0.000  -0.000 -43.581   0.000   0.000   7.041   0.000  -0.000
  7.069  -0.000   0.000   5.757  -0.000   0.000  -0.000  -0.003
 -0.000   7.095   0.000  -0.000   5.751   0.000   0.000  -0.000
  0.000   0.000   7.041   0.000   0.000   5.760  -0.000   0.000
  0.000  -0.000   0.000  -0.000   0.000  -0.000  -0.949  -0.000
  0.004   0.000  -0.000  -0.003  -0.000   0.000  -0.000  -1.105
 -0.000   0.011  -0.000   0.000  -0.006   0.000   0.000   0.000
 -0.000   0.000   0.019   0.000  -0.000  -0.009   0.000  -0.000
 -0.000   0.008   0.000   0.000  -0.003  -0.000   0.000  -0.000
  0.000  -0.000   0.000  -0.000   0.000  -0.000  -1.480  -0.000
  0.004   0.000  -0.000  -0.003  -0.000   0.000  -0.000  -1.633
 -0.000   0.011  -0.000   0.000  -0.005   0.000   0.000   0.000
 -0.000   0.000   0.019   0.000  -0.000  -0.009   0.000  -0.000
 -0.000   0.008   0.000   0.000  -0.003  -0.000   0.000  -0.000
 -0.000  -0.004  -0.000  -0.000   0.003  -0.000   0.000  -0.000
 -0.000  -0.011  -0.000  -0.000   0.007  -0.000   0.000  -0.000
 total augmentation occupancy for first ion, spin component:           1
  1.992   0.000   0.000  -0.024  -0.000   0.000   0.000  -0.005  -0.000   0.000   0.000   0.000   0.005  -0.000   0.000  -0.000
  0.000   1.992   0.000  -0.000  -0.025   0.000   0.000   0.000  -0.003   0.000   0.002   0.000   0.000   0.003   0.000  -0.002
  0.000   0.000   1.992   0.000   0.000  -0.025   0.000  -0.000   0.000  -0.002   0.000   0.000  -0.000   0.000   0.002   0.000
 -0.024  -0.000   0.000   0.220   0.000   0.000   0.000  -0.011  -0.000   0.000   0.000   0.000   0.016   0.000   0.000  -0.000
 -0.000  -0.025   0.000   0.000   0.221   0.000   0.000   0.000  -0.010   0.000   0.012   0.000   0.000   0.004   0.000  -0.019
  0.000   0.000  -0.025   0.000   0.000   0.199   0.000   0.000   0.000   0.005  -0.000  -0.000   0.000   0.000  -0.018   0.000
  0.000   0.000   0.000   0.000   0.000   0.000   2.473  -0.000   0.000   0.000   0.000  -1.501   0.000   0.000  -0.000   0.000
 -0.005   0.000  -0.000  -0.011   0.000   0.000  -0.000   2.913   0.000   0.000   0.000   0.000  -2.269   0.000   0.000   0.000
 -0.000  -0.003   0.000  -0.000  -0.010   0.000   0.000   0.000   3.226   0.000   0.220  -0.000  -0.000  -2.012  -0.000  -0.105
  0.000   0.000  -0.002   0.000   0.000   0.005   0.000   0.000   0.000   2.401  -0.000  -0.000   0.000   0.000  -1.455   0.000
  0.000   0.002   0.000   0.000   0.012  -0.000   0.000   0.000   0.220  -0.000   3.004   0.000   0.000  -0.107  -0.000  -1.896
  0.000   0.000   0.000   0.000   0.000  -0.000  -1.501   0.000  -0.000  -0.000   0.000   1.935  -0.000   0.000   0.000  -0.000
  0.005   0.000  -0.000   0.016   0.000   0.000   0.000  -2.269  -0.000   0.000   0.000  -0.000   2.867   0.000   0.000  -0.000
 -0.000   0.003   0.000   0.000   0.004   0.000   0.000   0.000  -2.012   0.000  -0.107   0.000   0.000   2.133   0.000   0.034
  0.000   0.000   0.002   0.000   0.000  -0.018  -0.000   0.000  -0.000  -1.455  -0.000   0.000   0.000   0.000   1.891   0.000
 -0.000  -0.002   0.000  -0.000  -0.019   0.000   0.000   0.000  -0.105   0.000  -1.896  -0.000  -0.000   0.034   0.000   2.097
  0.000  -0.001  -0.000   0.000   0.002   0.000   0.000   0.000  -0.120   0.000   0.208   0.000   0.000   0.091   0.000  -0.167
  0.000   0.001   0.000   0.000  -0.000   0.000   0.000   0.000   0.012   0.000  -0.013   0.000  -0.000  -0.008   0.000   0.010
 total augmentation occupancy for first ion, spin component:           2
  0.002   0.000   0.000   0.007   0.000   0.000   0.000   0.003   0.000   0.000   0.000   0.000  -0.003   0.000   0.000   0.000
  0.000   0.002  -0.000   0.000   0.006  -0.000   0.000   0.000   0.005   0.000   0.004   0.000  -0.000  -0.006   0.000  -0.004
  0.000  -0.000   0.002   0.000  -0.000   0.007   0.000   0.000   0.000   0.010   0.000  -0.000   0.000   0.000  -0.011   0.000
  0.007   0.000   0.000  -0.007   0.000   0.000   0.000   0.014   0.000   0.000   0.000   0.000  -0.015   0.000   0.000   0.000
  0.000   0.006  -0.000   0.000  -0.001   0.000  -0.000   0.000  -0.010   0.000  -0.041   0.000   0.000  -0.005   0.000   0.019
  0.000  -0.000   0.007   0.000   0.000  -0.004  -0.000   0.000   0.000  -0.070   0.000  -0.000  -0.000  -0.000   0.022   0.000
  0.000   0.000   0.000   0.000  -0.000  -0.000  -1.534   0.000   0.000   0.000   0.000   0.654   0.000   0.000   0.000   0.000
  0.003   0.000   0.000   0.014   0.000   0.000   0.000  -1.615  -0.000   0.000   0.000   0.000   0.499   0.000   0.000  -0.000
  0.000   0.005   0.000   0.000  -0.010   0.000   0.000  -0.000  -2.124   0.000  -0.015   0.000  -0.000   0.904   0.000   0.041
  0.000   0.000   0.010   0.000   0.000  -0.070   0.000   0.000   0.000  -1.377   0.000  -0.000   0.000   0.000   0.436   0.000
  0.000   0.004   0.000   0.000  -0.041   0.000   0.000   0.000  -0.015   0.000  -2.012   0.000   0.000   0.040  -0.000   0.752
  0.000   0.000  -0.000   0.000   0.000  -0.000   0.654   0.000   0.000  -0.000   0.000  -0.112  -0.000   0.000  -0.000   0.000
 -0.003  -0.000   0.000  -0.015   0.000  -0.000   0.000   0.499  -0.000   0.000   0.000  -0.000   0.119   0.000   0.000   0.000
  0.000  -0.006   0.000   0.000  -0.005  -0.000   0.000   0.000   0.904   0.000   0.040   0.000   0.000  -0.252   0.000  -0.053
  0.000   0.000  -0.011   0.000   0.000   0.022   0.000   0.000   0.000   0.436  -0.000  -0.000   0.000   0.000   0.104   0.000
  0.000  -0.004   0.000   0.000   0.019   0.000   0.000  -0.000   0.041   0.000   0.752   0.000   0.000  -0.053   0.000  -0.078
 -0.000  -0.002   0.000   0.000  -0.016  -0.000   0.000   0.000  -0.023   0.000  -0.027   0.000   0.000   0.004   0.000   0.024
  0.000   0.000  -0.000   0.000  -0.000  -0.000  -0.000   0.000  -0.006   0.000   0.003   0.000   0.000   0.001   0.000  -0.001


------------------------ aborting loop because EDIFF is reached ----------------------------------------





 total charge

# of ion       s       p       d       tot
------------------------------------------
    1        0.385   6.403   6.124  12.911
    2        0.379   6.391   6.119  12.889
    3        0.382   6.396   6.105  12.883
    4        0.387   6.403   6.113  12.904
    5        0.385   6.402   6.100  12.887
    6        0.380   6.395   6.107  12.883
    7        0.385   6.403   6.124  12.911
    8        0.379   6.391   6.119  12.889
    9        0.382   6.396   6.105  12.883
   10        0.833   0.849   8.070   9.753
   11        0.833   0.838   8.077   9.748
   12        0.819   0.844   8.080   9.743
--------------------------------------------------
tot          5.929  60.110  79.245 145.284



 magnetization (x)

# of ion       s       p       d       tot
------------------------------------------
    1       -0.010  -0.007  -1.996  -2.012
    2        0.000  -0.011   2.325   2.315
    3        0.007   0.002   2.190   2.199
    4       -0.014  -0.021  -2.014  -2.049
    5        0.013   0.020   2.134   2.166
    6       -0.001  -0.014   2.380   2.366
    7       -0.010  -0.007  -1.996  -2.012
    8        0.000  -0.011   2.325   2.315
    9        0.007   0.002   2.190   2.199
   10        0.006   0.010  -0.051  -0.035
   11       -0.009  -0.021   0.095   0.064
   12       -0.035  -0.092   0.346   0.218
--------------------------------------------------
tot         -0.047  -0.148   7.928   7.733
 
    FORLOC:  cpu time      0.0010: real time      0.0010
    FORNL :  cpu time      0.6465: real time      0.6501
    STRESS:  cpu time      3.9444: real time      3.9783
    FORCOR:  cpu time      0.0204: real time      0.0206
    OFIELD:  cpu time      0.0002: real time      0.0002

  FORCE on cell =-STRESS in cart. coord.  units (eV):
  Direction    XX          YY          ZZ          XY          YZ          ZX
  --------------------------------------------------------------------------------------
  Alpha Z  1224.38942  1224.38942  1224.38942
  Ewald   -6261.68149 -6261.68149 -6275.87333    -0.00000     0.00000    -0.00000
  Hartree  1772.26403  1772.26403  1759.16850    -0.00000    -0.00000    -0.00000
  E(xc)    -946.53646  -946.53646  -946.50353    -0.00000    -0.00000     0.00000
  Local    1274.53947  1274.53947  1305.92601     0.00000     0.00000     0.00000
  n-local  -192.51737  -205.29261  -198.24470    16.27304     0.15661     0.24395
  augment  1435.78121  1435.78121  1432.60097     0.00000     0.00000    -0.00000
  Kinetic  1728.95567  1706.04356  1715.98388     5.30368     0.09103     0.17490
  Fock        0.00000     0.00000     0.00000     0.00000     0.00000     0.00000
  -------------------------------------------------------------------------------------
  Total      17.35082    17.35082    17.44722     0.00000     0.00000     0.00000
  in kB     199.99342   199.99342   201.10456     0.00000     0.00000     0.00000
  external pressure =      200.36 kB  Pullay stress =        0.00 kB


 VOLUME and BASIS-vectors are now :
 -----------------------------------------------------------------------------
  energy-cutoff  :      520.00
  volume of cell :      139.00
      direct lattice vectors                 reciprocal lattice vectors
     3.582856371  0.000000000  0.000000000     0.279106918  0.000000000  0.000000000
     0.000000000  3.582856371  0.000000000     0.000000000  0.279106918 -0.000000000
     0.000000000  0.000000000 10.828193375     0.000000000 -0.000000000  0.092351509

  length of vectors
     3.582856371  3.582856371 10.828193375     0.279106918  0.279106918  0.092351509


 FORCES acting on ions:
    Electron-Ion                     Ewald-Force                    Non-Local-Force
 -----------------------------------------------------------------------------------------------
   0.197E-11 0.111E-10 -.790E+01   -.247E-13 0.311E-13 0.708E+01   -.321E-18 -.110E-17 0.814E+00
   0.224E-13 0.182E-11 -.263E+02   -.248E-13 -.170E-13 0.267E+02   0.605E-19 -.442E-18 -.419E+00
   0.284E-13 0.233E-11 0.409E+02   -.372E-13 -.202E-14 -.421E+02   0.467E-18 -.204E-17 0.115E+01
   0.970E-12 0.713E-11 0.548E+02   0.357E-14 -.253E-14 -.530E+02   -.168E-18 0.305E-18 -.181E+01
   0.966E-12 0.695E-11 -.277E+02   -.310E-13 -.279E-14 0.291E+02   0.280E-18 -.166E-19 -.131E+01
   0.997E-12 0.677E-11 -.221E+02   0.480E-13 0.398E-14 0.222E+02   0.203E-18 -.140E-18 -.102E+00
   0.939E-12 -.416E-13 -.790E+01   0.206E-13 -.602E-14 0.708E+01   0.427E-18 0.584E-18 0.814E+00
   0.100E-11 0.149E-12 -.263E+02   0.277E-14 -.887E-15 0.267E+02   -.348E-18 -.898E-19 -.419E+00
   0.997E-12 -.317E-13 0.409E+02   0.125E-13 -.131E-13 -.421E+02   -.831E-19 -.726E-19 0.115E+01
   0.177E-12 0.198E-14 0.187E+02   -.126E-13 -.253E-13 -.187E+02   -.407E-19 -.304E-19 0.104E+00
   0.177E-12 0.149E-12 -.322E+02   0.491E-14 -.885E-14 0.324E+02   -.610E-18 0.705E-18 -.119E+00
   0.169E-12 0.208E-13 -.478E+01   0.604E-14 0.396E-13 0.464E+01   -.945E-19 0.459E-18 0.138E+00
 -----------------------------------------------------------------------------------------------
   0.850E-11 0.366E-10 -.206E-02   -.320E-13 -.376E-14 -.192E-12   -.228E-18 -.188E-17 -.333E-02
 
 
 POSITION                                       TOTAL-FORCE (eV/Angst)
 -----------------------------------------------------------------------------------
      3.58286      1.79143      1.80236        -0.000000     -0.000000     -0.001103
      0.00000      1.79143      5.40573        -0.000000      0.000000      0.001894
      0.00000      1.79143      9.04077        -0.000000     -0.000000     -0.009869
      1.79143      1.79143      0.03493        -0.000000     -0.000000     -0.000056
      1.79143      1.79143      3.60787         0.000000      0.000000      0.002208
      1.79143      1.79143      7.20359         0.000000      0.000000      0.009736
      1.79143      0.00000      1.80236         0.000000     -0.000000     -0.001103
      1.79143      0.00000      5.40573        -0.000000      0.000000      0.001894
      1.79143      0.00000      9.04077        -0.000000     -0.000000     -0.009869
      3.58286      0.00000     10.82022        -0.000000      0.000000      0.000728
      3.58286      0.00000      3.58005        -0.000000      0.000000      0.000572
      3.58286      0.00000      7.22477        -0.000000      0.000000      0.004968
 -----------------------------------------------------------------------------------
    total drift:                                0.000000      0.000000     -0.005386


--------------------------------------------------------------------------------------------------------



  FREE ENERGIE OF THE ION-ELECTRON SYSTEM (eV)
  ---------------------------------------------------
  free  energy   TOTEN  =       -92.50121857 eV

  energy  without entropy=      -92.51308595  energy(sigma->0) =      -92.50517437
 
 d Force = 0.9418264E-04[-0.114E-04, 0.200E-03]  d Energy = 0.3936096E-04 0.548E-04
 d Force =-0.8376145E-01[-0.995E-01,-0.680E-01]  d Ewald  =-0.8179686E-01-0.196E-02


--------------------------------------------------------------------------------------------------------


    POTLOK:  cpu time      0.0419: real time      0.0421


--------------------------------------------------------------------------------------------------------


 Conjugate gradient step on ions:
 trial-energy change:   -0.000039  1 .order   -0.000084   -0.000194    0.000025
  (g-gl).g = 0.195E-03      g.g   = 0.176E-03  gl.gl    = 0.322E-03
 g(Force)  = 0.171E-03   g(Stress)= 0.477E-05 ortho     =-0.185E-04
 gamma     =   0.60500
 trial     =   1.17451
 opt step  =   0.68833  (harmonic =   1.04043) maximal distance =0.00046028
 next E    =   -92.501227   (d E  =  -0.00005)


--------------------------------------------------------------------------------------------------------


  
 reached required accuracy - stopping structural energy minimisation
     LOOP+:  cpu time     69.0715: real time     69.9937
    4ORBIT:  cpu time      0.0000: real time      0.0000



 total charge

# of ion       s       p       d       tot
------------------------------------------
    1        0.385   6.403   6.124  12.911
    2        0.379   6.391   6.119  12.889
    3        0.382   6.396   6.105  12.883
    4        0.387   6.403   6.113  12.904
    5        0.385   6.402   6.100  12.887
    6        0.380   6.395   6.107  12.883
    7        0.385   6.403   6.124  12.911
    8        0.379   6.391   6.119  12.889
    9        0.382   6.396   6.105  12.883
   10        0.833   0.849   8.070   9.753
   11        0.833   0.838   8.077   9.748
   12        0.819   0.844   8.080   9.743
--------------------------------------------------
tot          5.929  60.110  79.245 145.284



 magnetization (x)

# of ion       s       p       d       tot
------------------------------------------
    1       -0.010  -0.007  -1.996  -2.012
    2        0.000  -0.011   2.325   2.315
    3        0.007   0.002   2.190   2.199
    4       -0.014  -0.021  -2.014  -2.049
    5        0.013   0.020   2.134   2.166
    6       -0.001  -0.014   2.380   2.366
    7       -0.010  -0.007  -1.996  -2.012
    8        0.000  -0.011   2.325   2.315
    9        0.007   0.002   2.190   2.199
   10        0.006   0.010  -0.051  -0.035
   11       -0.009  -0.021   0.095   0.064
   12       -0.035  -0.092   0.346   0.218
--------------------------------------------------
tot         -0.047  -0.148   7.928   7.733
 

 total amount of memory used by VASP MPI-rank0   259171. kBytes
=======================================================================

   base      :      30000. kBytes
   nonl-proj :      92073. kBytes
   fftplans  :        888. kBytes
   grid      :       6813. kBytes
   one-center:        373. kBytes
   wavefun   :     129024. kBytes
 
  
  
 General timing and accounting informations for this job:
 ========================================================
  
                  Total CPU time used (sec):      517.691
                            User time (sec):      510.029
                          System time (sec):        7.663
                         Elapsed time (sec):      530.677
  
                   Maximum memory used (kb):     1286144.
                   Average memory used (kb):          N/A
  
                          Minor page faults:       240222
                          Major page faults:          525
                 Voluntary context switches:        18580
