 vasp.6.4.3 19Mar24 (build Mar 26 2024 14:05:37) complex                        
  
 executed on             LinuxIFC date 2024.12.17  01:18:44
 running  128 mpi-ranks, on    1 nodes
 distrk:  each k-point on   32 cores,    4 groups
 distr:  one band on NCORE=   1 cores,   32 groups


--------------------------------------------------------------------------------------------------------


 INCAR:
   ALGO = All
   EDIFF = 1e-06
   EDIFFG = -0.01
   ENCUT = 520
   GGA = Pe
   IBRION = 2
   ISIF = 4
   ISMEAR = 1
   ISPIN = 2
   KPAR = 4
   LCHARG = True
   LORBIT = 11
   LREAL = False
   LWAVE = False
   MAGMOM = 1*-2.012 1*2.315 1*2.199 1*-2.049 1*2.166 1*2.366 1*-2.012 1*2.315 1*2.199 1*-0.035 1*0.064 1*0.218
   NELM = 200
   NSW = 100
   PREC = Accurate
   SIGMA = 0.2

 POTCAR:    PAW_PBE Fe_pv 02Aug2007               
 POTCAR:    PAW_PBE Pt 04Feb2005                  
 -----------------------------------------------------------------------------
|                                                                             |
|           W    W    AA    RRRRR   N    N  II  N    N   GGGG   !!!           |
|           W    W   A  A   R    R  NN   N  II  NN   N  G    G  !!!           |
|           W    W  A    A  R    R  N N  N  II  N N  N  G       !!!           |
|           W WW W  AAAAAA  RRRRR   N  N N  II  N  N N  G  GGG   !            |
|           WW  WW  A    A  R   R   N   NN  II  N   NN  G    G                |
|           W    W  A    A  R    R  N    N  II  N    N   GGGG   !!!           |
|                                                                             |
|     For optimal performance we recommend to set                             |
|       NCORE = 2 up to number-of-cores-per-socket                            |
|     NCORE specifies how many cores store one orbital (NPAR=cpu/NCORE).      |
|     This setting can greatly improve the performance of VASP for DFT.       |
|     The default, NCORE=1 might be grossly inefficient on modern             |
|     multi-core architectures or massively parallel machines. Do your        |
|     own testing! More info at https://www.vasp.at/wiki/index.php/NCORE      |
|     Unfortunately you need to use the default for GW and RPA                |
|     calculations (for HF NCORE is supported but not extensively tested      |
|     yet).                                                                   |
|                                                                             |
 -----------------------------------------------------------------------------

 POTCAR:    PAW_PBE Fe_pv 02Aug2007               
   SHA256 =  5d22e414b1f82158bf2c7ecb8b97b28fd0923e48cadc1c3bf74d524558f5dd32 Fe_pv/POTCAR          
   COPYR  = (c) Copyright 02Aug2007 Georg Kresse                                                    
   COPYR  = This file is part of the software VASP. Any use, copying, and all other rights are regul
   COPYR  = If you do not have a valid VASP license, you may not use, copy or distribute this file. 
   VRHFIN =Fe:  3pd7s1                                                                              
   LEXCH  = PE                                                                                      
   EATOM  =  2457.4239 eV,  180.6156 Ry                                                             
                                                                                                    
   TITEL  = PAW_PBE Fe_pv 02Aug2007                                                                 
   LULTRA =        F    use ultrasoft PP ?                                                          
   IUNSCR =        1    unscreen: 0-lin 1-nonlin 2-no                                               
   RPACOR =    1.750    partial core radius                                                         
   POMASS =   55.847; ZVAL   =   14.000    mass and valenz                                          
   RCORE  =    2.200    outmost cutoff radius                                                       
   RWIGS  =    2.200; RWIGS  =    1.164    wigner-seitz radius (au A)                               
   ENMAX  =  293.238; ENMIN  =  219.928 eV                                                          
   ICORE  =        3    local potential                                                             
   LCOR   =        T    correct aug charges                                                         
   LPAW   =        T    paw PP                                                                      
   EAUG   =  578.342                                                                                
   DEXC   =    0.000                                                                                
   RMAX   =    2.249    core radius for proj-oper                                                   
   RAUG   =    1.300    factor for augmentation sphere                                              
   RDEP   =    2.296    radius for radial grids                                                     
   RDEPT  =    1.766    core radius for aug-charge                                                  
                                                                                                    
   Atomic configuration                                                                             
    8 entries                                                                                       
     n  l   j            E        occ.                                                              
     1  0  0.50     -6993.8440   2.0000                                                             
     2  0  0.50      -814.6047   2.0000                                                             
     2  1  1.50      -693.3689   6.0000                                                             
     3  0  0.50       -89.4732   2.0000                                                             
     3  1  1.50       -55.6373   6.0000                                                             
     3  2  2.50        -3.8151   7.0000                                                             
     4  0  0.50        -4.2551   1.0000                                                             
     4  3  2.50        -1.3606   0.0000                                                             
   Description                                                                                      
     l       E           TYP  RCUT    TYP  RCUT                                                     
     1    -55.6372668     23  2.000                                                                 
     1     -5.4423304     23  2.000                                                                 
     2     -3.8151096     23  2.200                                                                 
     2     -5.1756922     23  2.200                                                                 
     0     -4.2550951     23  2.200                                                                 
     0     27.2116520     23  2.200                                                                 
     3     -1.3605826     23  2.200                                                                 
  local pseudopotential read in
  partial core-charges read in
  partial kinetic energy density read in
  atomic valenz-charges read in
  non local Contribution for L=           1  read in
    real space projection operators read in
  non local Contribution for L=           1  read in
    real space projection operators read in
  non local Contribution for L=           2  read in
    real space projection operators read in
  non local Contribution for L=           2  read in
    real space projection operators read in
  non local Contribution for L=           0  read in
    real space projection operators read in
  non local Contribution for L=           0  read in
    real space projection operators read in
    PAW grid and wavefunctions read in
 
   number of l-projection  operators is LMAX  =           6
   number of lm-projection operators is LMMAX =          18
 
 POTCAR:    PAW_PBE Pt 04Feb2005                  
   SHA256 =  3ed90460adef76debcff1cfb73ee1349b515b1a3db03439735b44de3a8db7dc8 Pt/POTCAR             
   COPYR  = (c) Copyright 04Feb2005 Georg Kresse                                                    
   COPYR  = This file is part of the software VASP. Any use, copying, and all other rights are regul
   COPYR  = If you do not have a valid VASP license, you may not use, copy or distribute this file. 
   VRHFIN =Pt: s1d9                                                                                 
   LEXCH  = PE                                                                                      
   EATOM  =   729.1176 eV,   53.5886 Ry                                                             
                                                                                                    
   TITEL  = PAW_PBE Pt 04Feb2005                                                                    
   LULTRA =        F    use ultrasoft PP ?                                                          
   IUNSCR =        1    unscreen: 0-lin 1-nonlin 2-no                                               
   RPACOR =    2.330    partial core radius                                                         
   POMASS =  195.080; ZVAL   =   10.000    mass and valenz                                          
   RCORE  =    2.600    outmost cutoff radius                                                       
   RWIGS  =    2.750; RWIGS  =    1.455    wigner-seitz radius (au A)                               
   ENMAX  =  230.283; ENMIN  =  172.712 eV                                                          
   ICORE  =        3    local potential                                                             
   LCOR   =        T    correct aug charges                                                         
   LPAW   =        T    paw PP                                                                      
   EAUG   =  358.966                                                                                
   DEXC   =    0.000                                                                                
   RMAX   =    2.658    core radius for proj-oper                                                   
   RAUG   =    1.300    factor for augmentation sphere                                              
   RDEP   =    2.761    radius for radial grids                                                     
   RDEPT  =    2.203    core radius for aug-charge                                                  
                                                                                                    
   Atomic configuration                                                                             
   16 entries                                                                                       
     n  l   j            E        occ.                                                              
     1  0  0.50    -78401.1885   2.0000                                                             
     2  0  0.50    -13770.7750   2.0000                                                             
     2  1  1.50    -11931.0468   6.0000                                                             
     3  0  0.50     -3234.7234   2.0000                                                             
     3  1  1.50     -2699.2216   6.0000                                                             
     3  2  2.50     -2119.5714  10.0000                                                             
     4  0  0.50      -695.1528   2.0000                                                             
     4  1  1.50      -519.6034   6.0000                                                             
     4  2  2.50      -306.6786  10.0000                                                             
     4  3  3.50       -70.1041  14.0000                                                             
     5  0  0.50      -101.7747   2.0000                                                             
     5  1  1.50       -55.9873   6.0000                                                             
     5  2  2.50        -6.1423   9.0000                                                             
     6  0  0.50        -5.6573   1.0000                                                             
     6  1  1.50        -6.8029   0.0000                                                             
     5  3  2.50        -1.3606   0.0000                                                             
   Description                                                                                      
     l       E           TYP  RCUT    TYP  RCUT                                                     
     2     -6.1423404     23  2.500                                                                 
     2     -7.5029230     23  2.500                                                                 
     0     -5.6573207     23  2.500                                                                 
     0      0.7416693     23  2.500                                                                 
     1     -2.7211652     23  2.600                                                                 
     1     20.4087390     23  2.600                                                                 
     3     -1.3605826     23  2.500                                                                 
  local pseudopotential read in
  partial core-charges read in
  partial kinetic energy density read in
  atomic valenz-charges read in
  non local Contribution for L=           2  read in
    real space projection operators read in
  non local Contribution for L=           2  read in
    real space projection operators read in
  non local Contribution for L=           0  read in
    real space projection operators read in
  non local Contribution for L=           0  read in
    real space projection operators read in
  non local Contribution for L=           1  read in
    real space projection operators read in
  non local Contribution for L=           1  read in
    real space projection operators read in
    PAW grid and wavefunctions read in
 
   number of l-projection  operators is LMAX  =           6
   number of lm-projection operators is LMMAX =          18
 
  PAW_PBE Fe_pv 02Aug2007               :
 energy of atom  1       EATOM=-2457.4239
 kinetic energy error for atom=    0.0062 (will be added to EATOM!!)
  PAW_PBE Pt 04Feb2005                  :
 energy of atom  2       EATOM= -729.1176
 kinetic energy error for atom=    0.0032 (will be added to EATOM!!)
 
 
 POSCAR: Fe9 Pt3
  positions in direct lattice
  velocities in cartesian coordinates


 exchange-correlation table for PE
   RHO(1)=    0.500       N(1)  =     2000
   RHO(2)=  100.500       N(2)  =     4000
 


--------------------------------------------------------------------------------------------------------


 ion  position               nearest neighbor table
   1  0.000  0.500  0.166-   4 2.52   4 2.52  11 2.52  11 2.52   7 2.53   7 2.53   7 2.53   7 2.53
                             5 2.54   5 2.54  10 2.55  10 2.55
   2  0.000  0.500  0.499-   8 2.53   8 2.53   8 2.53   8 2.53   6 2.54   6 2.54   5 2.54   5 2.54
                            12 2.55  12 2.55  11 2.56  11 2.56
   3  0.000  0.500  0.835-  10 2.53  10 2.53   9 2.53   9 2.53   9 2.53   9 2.53  12 2.55  12 2.55
                             4 2.56   4 2.56   6 2.57   6 2.57
   4  0.500  0.500  0.003-   1 2.52   7 2.52   7 2.52   1 2.52  10 2.53  10 2.53  10 2.53  10 2.53
                             9 2.56   3 2.56   9 2.56   3 2.56
   5  0.500  0.500  0.333-  11 2.53  11 2.53  11 2.53  11 2.53   8 2.54   2 2.54   2 2.54   8 2.54
                             1 2.54   7 2.54   1 2.54   7 2.54
   6  0.500  0.500  0.665-  12 2.53  12 2.53  12 2.53  12 2.53   8 2.54   2 2.54   2 2.54   8 2.54
                             9 2.57   3 2.57   9 2.57   3 2.57
   7  0.500  0.000  0.166-   4 2.52   4 2.52  11 2.52  11 2.52   1 2.53   1 2.53   1 2.53   1 2.53
                             5 2.54   5 2.54  10 2.55  10 2.55
   8  0.500  0.000  0.499-   2 2.53   2 2.53   2 2.53   2 2.53   6 2.54   6 2.54   5 2.54   5 2.54
                            12 2.55  12 2.55  11 2.56  11 2.56
   9  0.500  0.000  0.835-  10 2.53  10 2.53   3 2.53   3 2.53   3 2.53   3 2.53  12 2.55  12 2.55
                             4 2.56   4 2.56   6 2.57   6 2.57
  10  0.000  0.000  0.999-   3 2.53   9 2.53   3 2.53   9 2.53   4 2.53   4 2.53   4 2.53   4 2.53
                             1 2.55   7 2.55   7 2.55   1 2.55
  11  0.000  0.000  0.331-   1 2.52   7 2.52   1 2.52   7 2.52   5 2.53   5 2.53   5 2.53   5 2.53
                             2 2.56   2 2.56   8 2.56   8 2.56
  12  0.000  0.000  0.667-   6 2.53   6 2.53   6 2.53   6 2.53   3 2.55   9 2.55   9 2.55   3 2.55
                             2 2.55   8 2.55   8 2.55   2 2.55
 
  LATTYP: Found a simple tetragonal cell.
 ALAT       =     3.5828563713
 C/A-ratio  =     3.0222236822
  
  Lattice vectors:
  
 A1 = (   3.5828563713,   0.0000000000,   0.0000000000)
 A2 = (   0.0000000000,   3.5828563713,   0.0000000000)
 A3 = (   0.0000000000,   0.0000000000,  10.8281933752)


Analysis of symmetry for initial positions (statically):
=====================================================================
 Subroutine PRICEL returns:
 Original cell was already a primitive cell.
 

 Routine SETGRP: Setting up the symmetry group for a 
 simple tetragonal supercell.


 Subroutine GETGRP returns: Found  8 space group operations
 (whereof  8 operations were pure point group operations)
 out of a pool of 16 trial point group operations.


The static configuration has the point symmetry C_4v.


Analysis of symmetry for dynamics (positions and initial velocities):
=====================================================================
 Subroutine PRICEL returns:
 Original cell was already a primitive cell.
 

 Routine SETGRP: Setting up the symmetry group for a 
 simple tetragonal supercell.


 Subroutine GETGRP returns: Found  8 space group operations
 (whereof  8 operations were pure point group operations)
 out of a pool of 16 trial point group operations.


The dynamic configuration has the point symmetry C_4v.


Analysis of structural, dynamic, and magnetic symmetry:
=====================================================================
 Subroutine PRICEL returns:
 Original cell was already a primitive cell.
 

 Routine SETGRP: Setting up the symmetry group for a 
 simple tetragonal supercell.


 Subroutine GETGRP returns: Found  8 space group operations
 (whereof  8 operations were pure point group operations)
 out of a pool of 16 trial point group operations.


The overall configuration has the point symmetry C_4v.


 Subroutine INISYM returns: Found  8 space group operations
 (whereof  8 operations are pure point group operations),
 and found     1 'primitive' translations


----------------------------------------------------------------------------------------

                                     Primitive cell                                     

  volume of cell :     139.0000

  direct lattice vectors                    reciprocal lattice vectors
     3.582856371  0.000000000  0.000000000     0.279106918  0.000000000  0.000000000
     0.000000000  3.582856371  0.000000000     0.000000000  0.279106918  0.000000000
     0.000000000  0.000000000 10.828193375     0.000000000  0.000000000  0.092351509

  length of vectors
     3.582856371  3.582856371 10.828193375     0.279106918  0.279106918  0.092351509

  position of ions in fractional coordinates (direct lattice)
     0.000000000  0.500000000  0.166451100
     0.000000000  0.500000000  0.499227730
     0.000000000  0.500000000  0.834928600
     0.500000000  0.500000000  0.003225748
     0.500000000  0.500000000  0.333192242
     0.500000000  0.500000000  0.665262313
     0.500000000  0.000000000  0.166451100
     0.500000000  0.000000000  0.499227730
     0.500000000  0.000000000  0.834928600
     0.000000000  0.000000000  0.999263789
     0.000000000  0.000000000  0.330623080
     0.000000000  0.000000000  0.667217968

  ion indices of the primitive-cell ions
   primitive index   ion index
                 1           1
                 2           2
                 3           3
                 4           4
                 5           5
                 6           6
                 7           7
                 8           8
                 9           9
                10          10
                11          11
                12          12

----------------------------------------------------------------------------------------

 
 
 KPOINTS: pymatgen with grid density = 8800 / numb

Automatic generation of k-mesh.
 Grid dimensions read from file:
 generate k-points for:   13   13    4

 Generating k-lattice:

  Cartesian coordinates                     Fractional coordinates (reciprocal lattice)
     0.021469763  0.000000000  0.000000000     0.076923077  0.000000000  0.000000000
     0.000000000  0.021469763  0.000000000     0.000000000  0.076923077  0.000000000
     0.000000000  0.000000000  0.023087877     0.000000000  0.000000000  0.250000000

  Length of vectors
     0.021469763  0.021469763  0.023087877

  Shift w.r.t. Gamma in fractional coordinates (k-lattice)
     0.000000000  0.000000000  0.000000000

 
 Subroutine IBZKPT returns following result:
 ===========================================
 
 Found     84 irreducible k-points:
 
 Following reciprocal coordinates:
            Coordinates               Weight
  0.000000  0.000000  0.000000      1.000000
  0.076923  0.000000  0.000000      4.000000
  0.153846  0.000000  0.000000      4.000000
  0.230769  0.000000  0.000000      4.000000
  0.307692  0.000000  0.000000      4.000000
  0.384615  0.000000  0.000000      4.000000
  0.461538  0.000000  0.000000      4.000000
  0.076923  0.076923  0.000000      4.000000
  0.153846  0.076923  0.000000      8.000000
  0.230769  0.076923  0.000000      8.000000
  0.307692  0.076923  0.000000      8.000000
  0.384615  0.076923  0.000000      8.000000
  0.461538  0.076923  0.000000      8.000000
  0.153846  0.153846  0.000000      4.000000
  0.230769  0.153846  0.000000      8.000000
  0.307692  0.153846  0.000000      8.000000
  0.384615  0.153846  0.000000      8.000000
  0.461538  0.153846  0.000000      8.000000
  0.230769  0.230769  0.000000      4.000000
  0.307692  0.230769  0.000000      8.000000
  0.384615  0.230769  0.000000      8.000000
  0.461538  0.230769  0.000000      8.000000
  0.307692  0.307692  0.000000      4.000000
  0.384615  0.307692  0.000000      8.000000
  0.461538  0.307692  0.000000      8.000000
  0.384615  0.384615  0.000000      4.000000
  0.461538  0.384615  0.000000      8.000000
  0.461538  0.461538  0.000000      4.000000
  0.000000  0.000000  0.250000      2.000000
  0.076923  0.000000  0.250000      8.000000
  0.153846  0.000000  0.250000      8.000000
  0.230769  0.000000  0.250000      8.000000
  0.307692  0.000000  0.250000      8.000000
  0.384615  0.000000  0.250000      8.000000
  0.461538  0.000000  0.250000      8.000000
  0.076923  0.076923  0.250000      8.000000
  0.153846  0.076923  0.250000     16.000000
  0.230769  0.076923  0.250000     16.000000
  0.307692  0.076923  0.250000     16.000000
  0.384615  0.076923  0.250000     16.000000
  0.461538  0.076923  0.250000     16.000000
  0.153846  0.153846  0.250000      8.000000
  0.230769  0.153846  0.250000     16.000000
  0.307692  0.153846  0.250000     16.000000
  0.384615  0.153846  0.250000     16.000000
  0.461538  0.153846  0.250000     16.000000
  0.230769  0.230769  0.250000      8.000000
  0.307692  0.230769  0.250000     16.000000
  0.384615  0.230769  0.250000     16.000000
  0.461538  0.230769  0.250000     16.000000
  0.307692  0.307692  0.250000      8.000000
  0.384615  0.307692  0.250000     16.000000
  0.461538  0.307692  0.250000     16.000000
  0.384615  0.384615  0.250000      8.000000
  0.461538  0.384615  0.250000     16.000000
  0.461538  0.461538  0.250000      8.000000
  0.000000  0.000000  0.500000      1.000000
  0.076923  0.000000  0.500000      4.000000
  0.153846  0.000000  0.500000      4.000000
  0.230769  0.000000  0.500000      4.000000
  0.307692  0.000000  0.500000      4.000000
  0.384615  0.000000  0.500000      4.000000
  0.461538  0.000000  0.500000      4.000000
  0.076923  0.076923  0.500000      4.000000
  0.153846  0.076923  0.500000      8.000000
  0.230769  0.076923  0.500000      8.000000
  0.307692  0.076923  0.500000      8.000000
  0.384615  0.076923  0.500000      8.000000
  0.461538  0.076923  0.500000      8.000000
  0.153846  0.153846  0.500000      4.000000
  0.230769  0.153846  0.500000      8.000000
  0.307692  0.153846  0.500000      8.000000
  0.384615  0.153846  0.500000      8.000000
  0.461538  0.153846  0.500000      8.000000
  0.230769  0.230769  0.500000      4.000000
  0.307692  0.230769  0.500000      8.000000
  0.384615  0.230769  0.500000      8.000000
  0.461538  0.230769  0.500000      8.000000
  0.307692  0.307692  0.500000      4.000000
  0.384615  0.307692  0.500000      8.000000
  0.461538  0.307692  0.500000      8.000000
  0.384615  0.384615  0.500000      4.000000
  0.461538  0.384615  0.500000      8.000000
  0.461538  0.461538  0.500000      4.000000
 
 Following cartesian coordinates:
            Coordinates               Weight
  0.000000  0.000000  0.000000      1.000000
  0.021470  0.000000  0.000000      4.000000
  0.042940  0.000000  0.000000      4.000000
  0.064409  0.000000  0.000000      4.000000
  0.085879  0.000000  0.000000      4.000000
  0.107349  0.000000  0.000000      4.000000
  0.128819  0.000000  0.000000      4.000000
  0.021470  0.021470  0.000000      4.000000
  0.042940  0.021470  0.000000      8.000000
  0.064409  0.021470  0.000000      8.000000
  0.085879  0.021470  0.000000      8.000000
  0.107349  0.021470  0.000000      8.000000
  0.128819  0.021470  0.000000      8.000000
  0.042940  0.042940  0.000000      4.000000
  0.064409  0.042940  0.000000      8.000000
  0.085879  0.042940  0.000000      8.000000
  0.107349  0.042940  0.000000      8.000000
  0.128819  0.042940  0.000000      8.000000
  0.064409  0.064409  0.000000      4.000000
  0.085879  0.064409  0.000000      8.000000
  0.107349  0.064409  0.000000      8.000000
  0.128819  0.064409  0.000000      8.000000
  0.085879  0.085879  0.000000      4.000000
  0.107349  0.085879  0.000000      8.000000
  0.128819  0.085879  0.000000      8.000000
  0.107349  0.107349  0.000000      4.000000
  0.128819  0.107349  0.000000      8.000000
  0.128819  0.128819  0.000000      4.000000
  0.000000  0.000000  0.023088      2.000000
  0.021470  0.000000  0.023088      8.000000
  0.042940  0.000000  0.023088      8.000000
  0.064409  0.000000  0.023088      8.000000
  0.085879  0.000000  0.023088      8.000000
  0.107349  0.000000  0.023088      8.000000
  0.128819  0.000000  0.023088      8.000000
  0.021470  0.021470  0.023088      8.000000
  0.042940  0.021470  0.023088     16.000000
  0.064409  0.021470  0.023088     16.000000
  0.085879  0.021470  0.023088     16.000000
  0.107349  0.021470  0.023088     16.000000
  0.128819  0.021470  0.023088     16.000000
  0.042940  0.042940  0.023088      8.000000
  0.064409  0.042940  0.023088     16.000000
  0.085879  0.042940  0.023088     16.000000
  0.107349  0.042940  0.023088     16.000000
  0.128819  0.042940  0.023088     16.000000
  0.064409  0.064409  0.023088      8.000000
  0.085879  0.064409  0.023088     16.000000
  0.107349  0.064409  0.023088     16.000000
  0.128819  0.064409  0.023088     16.000000
  0.085879  0.085879  0.023088      8.000000
  0.107349  0.085879  0.023088     16.000000
  0.128819  0.085879  0.023088     16.000000
  0.107349  0.107349  0.023088      8.000000
  0.128819  0.107349  0.023088     16.000000
  0.128819  0.128819  0.023088      8.000000
  0.000000  0.000000  0.046176      1.000000
  0.021470  0.000000  0.046176      4.000000
  0.042940  0.000000  0.046176      4.000000
  0.064409  0.000000  0.046176      4.000000
  0.085879  0.000000  0.046176      4.000000
  0.107349  0.000000  0.046176      4.000000
  0.128819  0.000000  0.046176      4.000000
  0.021470  0.021470  0.046176      4.000000
  0.042940  0.021470  0.046176      8.000000
  0.064409  0.021470  0.046176      8.000000
  0.085879  0.021470  0.046176      8.000000
  0.107349  0.021470  0.046176      8.000000
  0.128819  0.021470  0.046176      8.000000
  0.042940  0.042940  0.046176      4.000000
  0.064409  0.042940  0.046176      8.000000
  0.085879  0.042940  0.046176      8.000000
  0.107349  0.042940  0.046176      8.000000
  0.128819  0.042940  0.046176      8.000000
  0.064409  0.064409  0.046176      4.000000
  0.085879  0.064409  0.046176      8.000000
  0.107349  0.064409  0.046176      8.000000
  0.128819  0.064409  0.046176      8.000000
  0.085879  0.085879  0.046176      4.000000
  0.107349  0.085879  0.046176      8.000000
  0.128819  0.085879  0.046176      8.000000
  0.107349  0.107349  0.046176      4.000000
  0.128819  0.107349  0.046176      8.000000
  0.128819  0.128819  0.046176      4.000000
 


--------------------------------------------------------------------------------------------------------




 Dimension of arrays:
   k-points           NKPTS =     84   k-points in BZ     NKDIM =     84   number of bands    NBANDS=    128
   number of dos      NEDOS =    301   number of ions     NIONS =     12
   non local maximal  LDIM  =      6   non local SUM 2l+1 LMDIM =     18
   total plane-waves  NPLWV =  65856
   max r-space proj   IRMAX =      1   max aug-charges    IRDMAX=  28892
   dimension x,y,z NGX =    28 NGY =   28 NGZ =   84
   dimension x,y,z NGXF=    56 NGYF=   56 NGZF=  168
   support grid    NGXF=    56 NGYF=   56 NGZF=  168
   ions per type =               9   3
   NGX,Y,Z   is equivalent  to a cutoff of  12.99, 12.99, 12.90 a.u.
   NGXF,Y,Z  is equivalent  to a cutoff of  25.98, 25.98, 25.79 a.u.

 SYSTEM =  unknown system                          
 POSCAR =  Fe9 Pt3                                 

 Startparameter for this run:
   NWRITE =      2    write-flag & timer
   PREC   = accura    normal or accurate (medium, high low for compatibility)
   ISTART =      0    job   : 0-new  1-cont  2-samecut
   ICHARG =      2    charge: 1-file 2-atom 10-const
   ISPIN  =      2    spin polarized calculation?
   LNONCOLLINEAR =      F non collinear calculations
   LSORBIT =      F    spin-orbit coupling
   INIWAV =      1    electr: 0-lowe 1-rand  2-diag
   LASPH  =      F    aspherical Exc in radial PAW
 Electronic Relaxation 1
   ENCUT  =  520.0 eV  38.22 Ry    6.18 a.u.   6.66  6.66 20.13*2*pi/ulx,y,z
   ENINI  =  520.0     initial cutoff
   ENAUG  =  578.3 eV  augmentation charge cutoff
   NELM   =    200;   NELMIN=  2; NELMDL=  0     # of ELM steps 
   EDIFF  = 0.1E-05   stopping-criterion for ELM
   LREAL  =      F    real-space projection
   NLSPLINE    = F    spline interpolate recip. space projectors
   LCOMPAT=      F    compatible to vasp.4.4
   GGA_COMPAT  = T    GGA compatible to vasp.4.4-vasp.4.6
   LMAXPAW     = -100 max onsite density
   LMAXMIX     =    2 max onsite mixed and CHGCAR
   VOSKOWN=      0    Vosko Wilk Nusair interpolation
   ROPT   =    0.00000   0.00000
 Ionic relaxation
   EDIFFG = -.1E-01   stopping-criterion for IOM
   NSW    =    100    number of steps for IOM
   NBLOCK =      1;   KBLOCK =    100    inner block; outer block 
   IBRION =      2    ionic relax: 0-MD 1-quasi-New 2-CG
   NFREE  =      1    steps in history (QN), initial steepest desc. (CG)
   ISIF   =      4    stress and relaxation
   IWAVPR =     11    prediction:  0-non 1-charg 2-wave 3-comb
   ISYM   =      2    0-nonsym 1-usesym 2-fastsym
   LCORR  =      T    Harris-Foulkes like correction to forces

   POTIM  = 0.5000    time-step for ionic-motion
   TEIN   =    0.0    initial temperature
   TEBEG  =    0.0;   TEEND  =   0.0 temperature during run
   SMASS  =  -3.00    Nose mass-parameter (am)
   estimated Nose-frequenzy (Omega)   =  0.10E-29 period in steps = 0.13E+47 mass=  -0.293E-27a.u.
   SCALEE = 1.0000    scale energy and forces
   NPACO  =    256;   APACO  = 10.0  distance and # of slots for P.C.
   PSTRESS=    0.0 pullay stress

  Mass of Ions in am
   POMASS =  55.85195.08
  Ionic Valenz
   ZVAL   =  14.00 10.00
  Atomic Wigner-Seitz radii
   RWIGS  =  -1.00 -1.00
  virtual crystal weights 
   VCA    =   1.00  1.00
   NELECT =     156.0000    total number of electrons
   NUPDOWN=      -1.0000    fix difference up-down

 DOS related values:
   EMIN   =  10.00;   EMAX   =-10.00  energy-range for DOS
   EFERMI =   0.00;   METHOD = LEGACY      
   ISMEAR =     1;   SIGMA  =   0.20  broadening in eV -4-tet -1-fermi 0-gaus

 Electronic relaxation 2 (details)
   IALGO  =     58    algorithm
   LDIAG  =      T    sub-space diagonalisation (order eigenvalues)
   LSUBROT=      F    optimize rotation matrix (better conditioning)
   TURBO    =      0    0=normal 1=particle mesh
   IRESTART =      0    0=no restart 2=restart with 2 vectors
   NREBOOT  =      0    no. of reboots
   NMIN     =      0    reboot dimension
   EREF     =   0.00    reference energy to select bands
   IMIX   =      4    mixing-type and parameters
     AMIX     =   0.40;   BMIX     =  1.00
     AMIX_MAG =   1.60;   BMIX_MAG =  1.00
     AMIN     =   0.10
     WC   =   100.;   INIMIX=   1;  MIXPRE=   1;  MAXMIX= -45

 Intra band minimization:
   WEIMIN = 0.0010     energy-eigenvalue tresh-hold
   EBREAK =  0.20E-08  absolut break condition
   DEPER  =   0.30     relativ break condition  

   TIME   =   0.40     timestep for ELM

  volume/ion in A,a.u.               =      11.58        78.17
  Fermi-wavevector in a.u.,A,eV,Ry     =   1.701289  3.214970 39.380489  2.894384
  Thomas-Fermi vector in A             =   2.781269
 
 Write flags
   LWAVE        =      F    write WAVECAR
   LDOWNSAMPLE  =      F    k-point downsampling of WAVECAR
   LCHARG       =      T    write CHGCAR
   LVTOT        =      F    write LOCPOT, total local potential
   LVHAR        =      F    write LOCPOT, Hartree potential only
   WRT_POTENTIAL= false  ! write potential to hdf5 file
   LELF         =      F    write electronic localiz. function (ELF)
   LORBIT       =     11    0 simple, 1 ext, 2 COOP (PROOUT), +10 PAW based schemes


 Dipole corrections
   LMONO      =      F    monopole corrections only (constant potential shift)
   LDIPOL     =      F    correct potential (dipole corrections)
   IDIPOL     =      0    1-x, 2-y, 3-z, 4-all directions 
   EPSILON    =  1.0000000 bulk dielectric constant
   LVACPOTAV  =      F  vacuum potentials using an averaging scheme for the charge density
   VACPOTFLAT =  0.1000000 required flatness to determine vacuum potential
 Exchange correlation treatment:
   GGA     = PE    functional components
   XC_C    = 1    coefficients multiplying the functional components
   LIBXC   =     F    Libxc                    
   VOSKOWN =     0    Vosko Wilk Nusair interpolation
   LHFCALC =     F    Hartree Fock is set to
   LHFONE  =     F    Hartree Fock one center treatment
   AEXX    =    0.0000 exact exchange contribution

 Parameters of functionals:
   PE:
     No parameter
 
 Van der Waals corrections
   IVDW    =     0    specifies the selected vdW correction

 Linear response parameters
   LEPSILON=     F    determine dielectric tensor
   LRPA    =     F    only Hartree local field effects (RPA)
   LNABLA  =     F    use nabla operator in PAW spheres
   LVEL    =     F    velocity operator in full k-point grid
   CSHIFT  =0.1000    complex shift for real part using Kramers Kronig
   OMEGAMAX=  -1.0    maximum frequency
   DEG_THRESHOLD= 0.2000000E-02 threshold for treating states as degnerate
   RTIME   =   -0.100 relaxation time in fs
  (WPLASMAI=    0.000 imaginary part of plasma frequency in eV, 0.658/RTIME)
   DFIELD  = 0.0000000 0.0000000 0.0000000 field for delta impulse in time
 
  Optional k-point grid parameters
   LKPOINTS_OPT  =     F    use optional k-point grid
   KPOINTS_OPT_MODE=     1    mode for optional k-point grid
 
 Orbital magnetization related:
   ORBITALMAG=     F  switch on orbital magnetization
   LCHIMAG   =     F  perturbation theory with respect to B field
   DQ        =  0.001000  dq finite difference perturbation B field
   LLRAUG    =     F  two centre corrections for induced B field
   LBONE     =     F  B-component reconstruction in AE one-centre
   LVGVCALC  =     T  calculate vGv susceptibility
   LVGVAPPL  =     F  apply vGv susceptibility instead of pGv for G=0

 Random number generation:
   RANDOM_GENERATOR = DEFAULT
   PCG_SEED         = not used


--------------------------------------------------------------------------------------------------------


 conjugate gradient relaxation of ions
 charge density and potential will be updated during run
 spin polarized calculation
 Conjugate gradient for all bands (Freysoldt, et al. PRB 79, 241103 (2009))
 preconditioned conjugated gradient                                        
 perform sub-space diagonalisation
    before iterative eigenvector-optimisation
 modified Broyden-mixing scheme, WC =      100.0
 initial mixing is a Kerker type mixing with AMIX =  0.4000 and BMIX =      1.0000
 Hartree-type preconditioning will be used
 using additional bands           50
 reciprocal scheme for non local part
 use partial core corrections
 no Harris-corrections to forces 
 use gradient corrections 
 use of overlap-Matrix (Vanderbilt PP)
 Methfessel and Paxton  Order N= 1 SIGMA  =   0.20


--------------------------------------------------------------------------------------------------------


  energy-cutoff  :      520.00
  volume of cell :      139.00
      direct lattice vectors                 reciprocal lattice vectors
     3.582856371  0.000000000  0.000000000     0.279106918  0.000000000  0.000000000
     0.000000000  3.582856371  0.000000000     0.000000000  0.279106918  0.000000000
     0.000000000  0.000000000 10.828193375     0.000000000  0.000000000  0.092351509

  length of vectors
     3.582856371  3.582856371 10.828193375     0.279106918  0.279106918  0.092351509


 
 k-points in units of 2pi/SCALE and weight: pymatgen with grid density = 8800 / numb
   0.00000000  0.00000000  0.00000000       0.001
   0.02146976  0.00000000  0.00000000       0.006
   0.04293953  0.00000000  0.00000000       0.006
   0.06440929  0.00000000  0.00000000       0.006
   0.08587905  0.00000000  0.00000000       0.006
   0.10734881  0.00000000  0.00000000       0.006
   0.12881858  0.00000000  0.00000000       0.006
   0.02146976  0.02146976  0.00000000       0.006
   0.04293953  0.02146976  0.00000000       0.012
   0.06440929  0.02146976  0.00000000       0.012
   0.08587905  0.02146976  0.00000000       0.012
   0.10734881  0.02146976  0.00000000       0.012
   0.12881858  0.02146976  0.00000000       0.012
   0.04293953  0.04293953  0.00000000       0.006
   0.06440929  0.04293953  0.00000000       0.012
   0.08587905  0.04293953  0.00000000       0.012
   0.10734881  0.04293953  0.00000000       0.012
   0.12881858  0.04293953  0.00000000       0.012
   0.06440929  0.06440929  0.00000000       0.006
   0.08587905  0.06440929  0.00000000       0.012
   0.10734881  0.06440929  0.00000000       0.012
   0.12881858  0.06440929  0.00000000       0.012
   0.08587905  0.08587905  0.00000000       0.006
   0.10734881  0.08587905  0.00000000       0.012
   0.12881858  0.08587905  0.00000000       0.012
   0.10734881  0.10734881  0.00000000       0.006
   0.12881858  0.10734881  0.00000000       0.012
   0.12881858  0.12881858  0.00000000       0.006
   0.00000000  0.00000000  0.02308788       0.003
   0.02146976  0.00000000  0.02308788       0.012
   0.04293953  0.00000000  0.02308788       0.012
   0.06440929  0.00000000  0.02308788       0.012
   0.08587905  0.00000000  0.02308788       0.012
   0.10734881  0.00000000  0.02308788       0.012
   0.12881858  0.00000000  0.02308788       0.012
   0.02146976  0.02146976  0.02308788       0.012
   0.04293953  0.02146976  0.02308788       0.024
   0.06440929  0.02146976  0.02308788       0.024
   0.08587905  0.02146976  0.02308788       0.024
   0.10734881  0.02146976  0.02308788       0.024
   0.12881858  0.02146976  0.02308788       0.024
   0.04293953  0.04293953  0.02308788       0.012
   0.06440929  0.04293953  0.02308788       0.024
   0.08587905  0.04293953  0.02308788       0.024
   0.10734881  0.04293953  0.02308788       0.024
   0.12881858  0.04293953  0.02308788       0.024
   0.06440929  0.06440929  0.02308788       0.012
   0.08587905  0.06440929  0.02308788       0.024
   0.10734881  0.06440929  0.02308788       0.024
   0.12881858  0.06440929  0.02308788       0.024
   0.08587905  0.08587905  0.02308788       0.012
   0.10734881  0.08587905  0.02308788       0.024
   0.12881858  0.08587905  0.02308788       0.024
   0.10734881  0.10734881  0.02308788       0.012
   0.12881858  0.10734881  0.02308788       0.024
   0.12881858  0.12881858  0.02308788       0.012
   0.00000000  0.00000000  0.04617575       0.001
   0.02146976  0.00000000  0.04617575       0.006
   0.04293953  0.00000000  0.04617575       0.006
   0.06440929  0.00000000  0.04617575       0.006
   0.08587905  0.00000000  0.04617575       0.006
   0.10734881  0.00000000  0.04617575       0.006
   0.12881858  0.00000000  0.04617575       0.006
   0.02146976  0.02146976  0.04617575       0.006
   0.04293953  0.02146976  0.04617575       0.012
   0.06440929  0.02146976  0.04617575       0.012
   0.08587905  0.02146976  0.04617575       0.012
   0.10734881  0.02146976  0.04617575       0.012
   0.12881858  0.02146976  0.04617575       0.012
   0.04293953  0.04293953  0.04617575       0.006
   0.06440929  0.04293953  0.04617575       0.012
   0.08587905  0.04293953  0.04617575       0.012
   0.10734881  0.04293953  0.04617575       0.012
   0.12881858  0.04293953  0.04617575       0.012
   0.06440929  0.06440929  0.04617575       0.006
   0.08587905  0.06440929  0.04617575       0.012
   0.10734881  0.06440929  0.04617575       0.012
   0.12881858  0.06440929  0.04617575       0.012
   0.08587905  0.08587905  0.04617575       0.006
   0.10734881  0.08587905  0.04617575       0.012
   0.12881858  0.08587905  0.04617575       0.012
   0.10734881  0.10734881  0.04617575       0.006
   0.12881858  0.10734881  0.04617575       0.012
   0.12881858  0.12881858  0.04617575       0.006
 
 k-points in reciprocal lattice and weights: pymatgen with grid density = 8800 / numb
   0.00000000  0.00000000  0.00000000       0.001
   0.07692308  0.00000000  0.00000000       0.006
   0.15384615  0.00000000  0.00000000       0.006
   0.23076923  0.00000000  0.00000000       0.006
   0.30769231  0.00000000  0.00000000       0.006
   0.38461538  0.00000000  0.00000000       0.006
   0.46153846  0.00000000  0.00000000       0.006
   0.07692308  0.07692308  0.00000000       0.006
   0.15384615  0.07692308  0.00000000       0.012
   0.23076923  0.07692308  0.00000000       0.012
   0.30769231  0.07692308  0.00000000       0.012
   0.38461538  0.07692308  0.00000000       0.012
   0.46153846  0.07692308  0.00000000       0.012
   0.15384615  0.15384615  0.00000000       0.006
   0.23076923  0.15384615  0.00000000       0.012
   0.30769231  0.15384615  0.00000000       0.012
   0.38461538  0.15384615  0.00000000       0.012
   0.46153846  0.15384615  0.00000000       0.012
   0.23076923  0.23076923  0.00000000       0.006
   0.30769231  0.23076923  0.00000000       0.012
   0.38461538  0.23076923  0.00000000       0.012
   0.46153846  0.23076923  0.00000000       0.012
   0.30769231  0.30769231  0.00000000       0.006
   0.38461538  0.30769231  0.00000000       0.012
   0.46153846  0.30769231  0.00000000       0.012
   0.38461538  0.38461538  0.00000000       0.006
   0.46153846  0.38461538  0.00000000       0.012
   0.46153846  0.46153846  0.00000000       0.006
   0.00000000  0.00000000  0.25000000       0.003
   0.07692308  0.00000000  0.25000000       0.012
   0.15384615  0.00000000  0.25000000       0.012
   0.23076923  0.00000000  0.25000000       0.012
   0.30769231  0.00000000  0.25000000       0.012
   0.38461538  0.00000000  0.25000000       0.012
   0.46153846  0.00000000  0.25000000       0.012
   0.07692308  0.07692308  0.25000000       0.012
   0.15384615  0.07692308  0.25000000       0.024
   0.23076923  0.07692308  0.25000000       0.024
   0.30769231  0.07692308  0.25000000       0.024
   0.38461538  0.07692308  0.25000000       0.024
   0.46153846  0.07692308  0.25000000       0.024
   0.15384615  0.15384615  0.25000000       0.012
   0.23076923  0.15384615  0.25000000       0.024
   0.30769231  0.15384615  0.25000000       0.024
   0.38461538  0.15384615  0.25000000       0.024
   0.46153846  0.15384615  0.25000000       0.024
   0.23076923  0.23076923  0.25000000       0.012
   0.30769231  0.23076923  0.25000000       0.024
   0.38461538  0.23076923  0.25000000       0.024
   0.46153846  0.23076923  0.25000000       0.024
   0.30769231  0.30769231  0.25000000       0.012
   0.38461538  0.30769231  0.25000000       0.024
   0.46153846  0.30769231  0.25000000       0.024
   0.38461538  0.38461538  0.25000000       0.012
   0.46153846  0.38461538  0.25000000       0.024
   0.46153846  0.46153846  0.25000000       0.012
   0.00000000  0.00000000  0.50000000       0.001
   0.07692308  0.00000000  0.50000000       0.006
   0.15384615  0.00000000  0.50000000       0.006
   0.23076923  0.00000000  0.50000000       0.006
   0.30769231  0.00000000  0.50000000       0.006
   0.38461538  0.00000000  0.50000000       0.006
   0.46153846  0.00000000  0.50000000       0.006
   0.07692308  0.07692308  0.50000000       0.006
   0.15384615  0.07692308  0.50000000       0.012
   0.23076923  0.07692308  0.50000000       0.012
   0.30769231  0.07692308  0.50000000       0.012
   0.38461538  0.07692308  0.50000000       0.012
   0.46153846  0.07692308  0.50000000       0.012
   0.15384615  0.15384615  0.50000000       0.006
   0.23076923  0.15384615  0.50000000       0.012
   0.30769231  0.15384615  0.50000000       0.012
   0.38461538  0.15384615  0.50000000       0.012
   0.46153846  0.15384615  0.50000000       0.012
   0.23076923  0.23076923  0.50000000       0.006
   0.30769231  0.23076923  0.50000000       0.012
   0.38461538  0.23076923  0.50000000       0.012
   0.46153846  0.23076923  0.50000000       0.012
   0.30769231  0.30769231  0.50000000       0.006
   0.38461538  0.30769231  0.50000000       0.012
   0.46153846  0.30769231  0.50000000       0.012
   0.38461538  0.38461538  0.50000000       0.006
   0.46153846  0.38461538  0.50000000       0.012
   0.46153846  0.46153846  0.50000000       0.006
 
 position of ions in fractional coordinates (direct lattice) 
   0.00000000  0.50000000  0.16645110
   0.00000000  0.50000000  0.49922773
   0.00000000  0.50000000  0.83492860
   0.50000000  0.50000000  0.00322575
   0.50000000  0.50000000  0.33319224
   0.50000000  0.50000000  0.66526231
   0.50000000  0.00000000  0.16645110
   0.50000000  0.00000000  0.49922773
   0.50000000  0.00000000  0.83492860
   0.00000000  0.00000000  0.99926379
   0.00000000  0.00000000  0.33062308
   0.00000000  0.00000000  0.66721797
 
 position of ions in cartesian coordinates  (Angst):
   0.00000000  1.79142819  1.80236470
   0.00000000  1.79142819  5.40573440
   0.00000000  1.79142819  9.04076834
   1.79142819  1.79142819  0.03492902
   1.79142819  1.79142819  3.60787003
   1.79142819  1.79142819  7.20358897
   1.79142819  0.00000000  1.80236470
   1.79142819  0.00000000  5.40573440
   1.79142819  0.00000000  9.04076834
   0.00000000  0.00000000 10.82022154
   0.00000000  0.00000000  3.58005065
   0.00000000  0.00000000  7.22476518
 


--------------------------------------------------------------------------------------------------------


 k-point     1 :   0.0000 0.0000 0.0000  plane waves:    3713
 k-point     2 :   0.0769 0.0000 0.0000  plane waves:    3757
 k-point     3 :   0.1538 0.0000 0.0000  plane waves:    3767
 k-point     4 :   0.2308 0.0000 0.0000  plane waves:    3757
 k-point     5 :   0.3077 0.0000 0.0000  plane waves:    3757
 k-point     6 :   0.3846 0.0000 0.0000  plane waves:    3734
 k-point     7 :   0.4615 0.0000 0.0000  plane waves:    3740
 k-point     8 :   0.0769 0.0769 0.0000  plane waves:    3753
 k-point     9 :   0.1538 0.0769 0.0000  plane waves:    3756
 k-point    10 :   0.2308 0.0769 0.0000  plane waves:    3754
 k-point    11 :   0.3077 0.0769 0.0000  plane waves:    3744
 k-point    12 :   0.3846 0.0769 0.0000  plane waves:    3739
 k-point    13 :   0.4615 0.0769 0.0000  plane waves:    3743
 k-point    14 :   0.1538 0.1538 0.0000  plane waves:    3763
 k-point    15 :   0.2308 0.1538 0.0000  plane waves:    3746
 k-point    16 :   0.3077 0.1538 0.0000  plane waves:    3737
 k-point    17 :   0.3846 0.1538 0.0000  plane waves:    3724
 k-point    18 :   0.4615 0.1538 0.0000  plane waves:    3732
 k-point    19 :   0.2308 0.2308 0.0000  plane waves:    3765
 k-point    20 :   0.3077 0.2308 0.0000  plane waves:    3738
 k-point    21 :   0.3846 0.2308 0.0000  plane waves:    3729
 k-point    22 :   0.4615 0.2308 0.0000  plane waves:    3719
 k-point    23 :   0.3077 0.3077 0.0000  plane waves:    3742
 k-point    24 :   0.3846 0.3077 0.0000  plane waves:    3744
 k-point    25 :   0.4615 0.3077 0.0000  plane waves:    3729
 k-point    26 :   0.3846 0.3846 0.0000  plane waves:    3742
 k-point    27 :   0.4615 0.3846 0.0000  plane waves:    3742
 k-point    28 :   0.4615 0.4615 0.0000  plane waves:    3764
 k-point    29 :   0.0000 0.0000 0.2500  plane waves:    3748
 k-point    30 :   0.0769 0.0000 0.2500  plane waves:    3751
 k-point    31 :   0.1538 0.0000 0.2500  plane waves:    3758
 k-point    32 :   0.2308 0.0000 0.2500  plane waves:    3762
 k-point    33 :   0.3077 0.0000 0.2500  plane waves:    3746
 k-point    34 :   0.3846 0.0000 0.2500  plane waves:    3735
 k-point    35 :   0.4615 0.0000 0.2500  plane waves:    3736
 k-point    36 :   0.0769 0.0769 0.2500  plane waves:    3753
 k-point    37 :   0.1538 0.0769 0.2500  plane waves:    3764
 k-point    38 :   0.2308 0.0769 0.2500  plane waves:    3764
 k-point    39 :   0.3077 0.0769 0.2500  plane waves:    3743
 k-point    40 :   0.3846 0.0769 0.2500  plane waves:    3731
 k-point    41 :   0.4615 0.0769 0.2500  plane waves:    3738
 k-point    42 :   0.1538 0.1538 0.2500  plane waves:    3760
 k-point    43 :   0.2308 0.1538 0.2500  plane waves:    3744
 k-point    44 :   0.3077 0.1538 0.2500  plane waves:    3736
 k-point    45 :   0.3846 0.1538 0.2500  plane waves:    3732
 k-point    46 :   0.4615 0.1538 0.2500  plane waves:    3731
 k-point    47 :   0.2308 0.2308 0.2500  plane waves:    3745
 k-point    48 :   0.3077 0.2308 0.2500  plane waves:    3744
 k-point    49 :   0.3846 0.2308 0.2500  plane waves:    3732
 k-point    50 :   0.4615 0.2308 0.2500  plane waves:    3739
 k-point    51 :   0.3077 0.3077 0.2500  plane waves:    3731
 k-point    52 :   0.3846 0.3077 0.2500  plane waves:    3739
 k-point    53 :   0.4615 0.3077 0.2500  plane waves:    3730
 k-point    54 :   0.3846 0.3846 0.2500  plane waves:    3745
 k-point    55 :   0.4615 0.3846 0.2500  plane waves:    3744
 k-point    56 :   0.4615 0.4615 0.2500  plane waves:    3742
 k-point    57 :   0.0000 0.0000 0.5000  plane waves:    3768
 k-point    58 :   0.0769 0.0000 0.5000  plane waves:    3772
 k-point    59 :   0.1538 0.0000 0.5000  plane waves:    3762
 k-point    60 :   0.2308 0.0000 0.5000  plane waves:    3768
 k-point    61 :   0.3077 0.0000 0.5000  plane waves:    3750
 k-point    62 :   0.3846 0.0000 0.5000  plane waves:    3734
 k-point    63 :   0.4615 0.0000 0.5000  plane waves:    3732
 k-point    64 :   0.0769 0.0769 0.5000  plane waves:    3776
 k-point    65 :   0.1538 0.0769 0.5000  plane waves:    3764
 k-point    66 :   0.2308 0.0769 0.5000  plane waves:    3758
 k-point    67 :   0.3077 0.0769 0.5000  plane waves:    3736
 k-point    68 :   0.3846 0.0769 0.5000  plane waves:    3732
 k-point    69 :   0.4615 0.0769 0.5000  plane waves:    3736
 k-point    70 :   0.1538 0.1538 0.5000  plane waves:    3750
 k-point    71 :   0.2308 0.1538 0.5000  plane waves:    3746
 k-point    72 :   0.3077 0.1538 0.5000  plane waves:    3738
 k-point    73 :   0.3846 0.1538 0.5000  plane waves:    3740
 k-point    74 :   0.4615 0.1538 0.5000  plane waves:    3752
 k-point    75 :   0.2308 0.2308 0.5000  plane waves:    3736
 k-point    76 :   0.3077 0.2308 0.5000  plane waves:    3726
 k-point    77 :   0.3846 0.2308 0.5000  plane waves:    3740
 k-point    78 :   0.4615 0.2308 0.5000  plane waves:    3738
 k-point    79 :   0.3077 0.3077 0.5000  plane waves:    3728
 k-point    80 :   0.3846 0.3077 0.5000  plane waves:    3730
 k-point    81 :   0.4615 0.3077 0.5000  plane waves:    3726
 k-point    82 :   0.3846 0.3846 0.5000  plane waves:    3736
 k-point    83 :   0.4615 0.3846 0.5000  plane waves:    3750
 k-point    84 :   0.4615 0.4615 0.5000  plane waves:    3756

 maximum and minimum number of plane-waves per node :      3776     3713

 maximum number of plane-waves:      3776
 maximum index in each direction: 
   IXMAX=    6   IYMAX=    6   IZMAX=   20
   IXMIN=   -7   IYMIN=   -7   IZMIN=  -20


 serial   3D FFT for wavefunctions
 parallel 3D FFT for charge:
    minimum data exchange during FFTs selected (reduces bandwidth)


 total amount of memory used by VASP MPI-rank0   259171. kBytes
=======================================================================

   base      :      30000. kBytes
   nonl-proj :      92073. kBytes
   fftplans  :        888. kBytes
   grid      :       6813. kBytes
   one-center:        373. kBytes
   wavefun   :     129024. kBytes
 
     INWAV:  cpu time      0.0000: real time      0.0000
 Broyden mixing: mesh for mixing (old mesh)
   NGX = 13   NGY = 13   NGZ = 41
  (NGX  = 56   NGY  = 56   NGZ  =168)
  gives a total of   6929 points

 initial charge density was supplied:
 charge density of overlapping atoms calculated
 number of electron     156.0000000 magnetization       7.7340000
 charge density for first step will be calculated from the start-wavefunctions


--------------------------------------------------------------------------------------------------------


 Maximum index for augmentation-charges         1106 (set IRDMAX)


--------------------------------------------------------------------------------------------------------


 First call to EWALD:  gamma=   0.342
 Maximum number of real-space cells 4x 4x 2
 Maximum number of reciprocal cells 2x 2x 5

    FEWALD:  cpu time      0.0028: real time      0.0028


--------------------------------------- Ionic step        1  -------------------------------------------




--------------------------------------- Iteration      1(   1)  ---------------------------------------


    POTLOK:  cpu time      0.0393: real time      0.0399
    SETDIJ:  cpu time      0.0164: real time      0.0168
    TRIAL :  cpu time      9.1942: real time      9.2494
    CORREC:  cpu time      0.0025: real time      0.0025
    --------------------------------------------
      LOOP:  cpu time      9.3663: real time      9.4256

 eigenvalue-minimisations  : 43072
 total energy-change (2. order) : 0.1761096E+04  (-0.9116172E+04)
 number of electron     156.0000000 magnetization       7.7340000
 augmentation part      156.0000000 magnetization       7.7340000

 Free energy of the ion-electron system (eV)
  ---------------------------------------------------
  alpha Z        PSCENC =      1224.38942132
  Ewald energy   TEWEN  =    -18799.21678190
  -Hartree energ DENC   =     -5642.59143471
  -exchange      EXHF   =         0.00000000
  -V(xc)+E(xc)   XCENC  =       660.45239222
  PAW double counting   =     20096.04348003   -20820.16570734
  entropy T*S    EENTRO =         0.00417901
  eigenvalues    EBANDS =       738.07761621
  atomic energy  EATOM  =     24304.10294433
  ---------------------------------------------------
  free energy    TOTEN  =      1761.09610917 eV

  energy without entropy =     1761.09193016  energy(sigma->0) =     1761.09471617


--------------------------------------------------------------------------------------------------------




--------------------------------------- Iteration      1(   2)  ---------------------------------------


    TRIAL :  cpu time      5.8202: real time      5.8626
    CORREC:  cpu time      0.0024: real time      0.0024
    --------------------------------------------
      LOOP:  cpu time      5.8497: real time      5.9054

 eigenvalue-minimisations  : 43008
 total energy-change (2. order) :-0.1754954E+04  (-0.1664583E+04)
 number of electron     156.0000000 magnetization       7.7340000
 augmentation part      156.0000000 magnetization       7.7340000

 Free energy of the ion-electron system (eV)
  ---------------------------------------------------
  alpha Z        PSCENC =      1224.38942132
  Ewald energy   TEWEN  =    -18799.21678190
  -Hartree energ DENC   =     -5642.59143471
  -exchange      EXHF   =         0.00000000
  -V(xc)+E(xc)   XCENC  =       660.45239222
  PAW double counting   =     20096.04348003   -20820.16570734
  entropy T*S    EENTRO =         0.00049816
  eigenvalues    EBANDS =     -1016.87236369
  atomic energy  EATOM  =     24304.10294433
  ---------------------------------------------------
  free energy    TOTEN  =         6.14244842 eV

  energy without entropy =        6.14195026  energy(sigma->0) =        6.14228236


--------------------------------------------------------------------------------------------------------




--------------------------------------- Iteration      1(   3)  ---------------------------------------


    TRIAL :  cpu time      6.5105: real time      6.5547
    CORREC:  cpu time      0.0025: real time      0.0025
    --------------------------------------------
      LOOP:  cpu time      6.5352: real time      6.5797

 eigenvalue-minimisations  : 50784
 total energy-change (2. order) :-0.1091873E+03  (-0.1078976E+03)
 number of electron     156.0000000 magnetization       7.7340000
 augmentation part      156.0000000 magnetization       7.7340000

 Free energy of the ion-electron system (eV)
  ---------------------------------------------------
  alpha Z        PSCENC =      1224.38942132
  Ewald energy   TEWEN  =    -18799.21678190
  -Hartree energ DENC   =     -5642.59143471
  -exchange      EXHF   =         0.00000000
  -V(xc)+E(xc)   XCENC  =       660.45239222
  PAW double counting   =     20096.04348003   -20820.16570734
  entropy T*S    EENTRO =         0.00174575
  eigenvalues    EBANDS =     -1126.06087679
  atomic energy  EATOM  =     24304.10294433
  ---------------------------------------------------
  free energy    TOTEN  =      -103.04481709 eV

  energy without entropy =     -103.04656284  energy(sigma->0) =     -103.04539901


--------------------------------------------------------------------------------------------------------




--------------------------------------- Iteration      1(   4)  ---------------------------------------


    TRIAL :  cpu time      5.9214: real time      5.9626
    CORREC:  cpu time      0.0025: real time      0.0026
    --------------------------------------------
      LOOP:  cpu time      5.9320: real time      5.9881

 eigenvalue-minimisations  : 46208
 total energy-change (2. order) :-0.1476700E+01  (-0.1476430E+01)
 number of electron     156.0000000 magnetization       7.7340000
 augmentation part      156.0000000 magnetization       7.7340000

 Free energy of the ion-electron system (eV)
  ---------------------------------------------------
  alpha Z        PSCENC =      1224.38942132
  Ewald energy   TEWEN  =    -18799.21678190
  -Hartree energ DENC   =     -5642.59143471
  -exchange      EXHF   =         0.00000000
  -V(xc)+E(xc)   XCENC  =       660.45239222
  PAW double counting   =     20096.04348003   -20820.16570734
  entropy T*S    EENTRO =         0.00172369
  eigenvalues    EBANDS =     -1127.53755483
  atomic energy  EATOM  =     24304.10294433
  ---------------------------------------------------
  free energy    TOTEN  =      -104.52151719 eV

  energy without entropy =     -104.52324088  energy(sigma->0) =     -104.52209176


--------------------------------------------------------------------------------------------------------




--------------------------------------- Iteration      1(   5)  ---------------------------------------


    TRIAL :  cpu time      7.1590: real time      7.2072
    CORREC:  cpu time      0.0026: real time      0.0026
    CHARGE:  cpu time      0.1731: real time      0.1749
    --------------------------------------------
      LOOP:  cpu time      7.3434: real time      7.4076

 eigenvalue-minimisations  : 53248
 total energy-change (2. order) :-0.2551996E-01  (-0.2551924E-01)
 number of electron     155.9999826 magnetization       6.1249905
 augmentation part       79.2777845 magnetization       4.4273922

 Free energy of the ion-electron system (eV)
  ---------------------------------------------------
  alpha Z        PSCENC =      1224.38942132
  Ewald energy   TEWEN  =    -18799.21678190
  -Hartree energ DENC   =     -5642.59143471
  -exchange      EXHF   =         0.00000000
  -V(xc)+E(xc)   XCENC  =       660.45239222
  PAW double counting   =     20096.04348003   -20820.16570734
  entropy T*S    EENTRO =         0.00172388
  eigenvalues    EBANDS =     -1127.56307499
  atomic energy  EATOM  =     24304.10294433
  ---------------------------------------------------
  free energy    TOTEN  =      -104.54703715 eV

  energy without entropy =     -104.54876103  energy(sigma->0) =     -104.54761178


--------------------------------------------------------------------------------------------------------




--------------------------------------- Iteration      1(   6)  ---------------------------------------


    POTLOK:  cpu time      0.0221: real time      0.0223
    SETDIJ:  cpu time      0.0084: real time      0.0085
    TRIAL :  cpu time      2.5798: real time      2.6057
    CORREC:  cpu time      1.0670: real time      1.0773
    CHARGE:  cpu time      0.1629: real time      0.1637
    --------------------------------------------
      LOOP:  cpu time      3.8482: real time      3.9004

 eigenvalue-minimisations  :     0
 total energy-change (2. order) : 0.4664336E+02  (-0.9821175E+01)
 number of electron     155.9999824 magnetization       6.0680261
 augmentation part       80.2818310 magnetization       4.3838856

 Free energy of the ion-electron system (eV)
  ---------------------------------------------------
  alpha Z        PSCENC =      1224.38942132
  Ewald energy   TEWEN  =    -18799.21678190
  -Hartree energ DENC   =     -4610.86894125
  -exchange      EXHF   =         0.00000000
  -V(xc)+E(xc)   XCENC  =       616.13252426
  PAW double counting   =     22222.57149706   -22896.80928221
  entropy T*S    EENTRO =        -0.00849666
  eigenvalues    EBANDS =     -2118.20677860
  atomic energy  EATOM  =     24304.10294433
  ---------------------------------------------------
  free energy    TOTEN  =       -57.90367310 eV

  energy without entropy =      -57.89517644  energy(sigma->0) =      -57.90084088


--------------------------------------------------------------------------------------------------------




--------------------------------------- Iteration      1(   7)  ---------------------------------------


    POTLOK:  cpu time      0.0214: real time      0.0216
    SETDIJ:  cpu time      0.0080: real time      0.0080
    TRIAL :  cpu time      2.6318: real time      2.6574
    CORREC:  cpu time      1.2031: real time      1.2147
    CHARGE:  cpu time      0.1595: real time      0.1604
    --------------------------------------------
      LOOP:  cpu time      4.0323: real time      4.0855

 eigenvalue-minimisations  :     0
 total energy-change (2. order) :-0.1233719E+02  (-0.1159275E+02)
 number of electron     155.9999821 magnetization       6.2321965
 augmentation part       82.3536974 magnetization       4.6400807

 Free energy of the ion-electron system (eV)
  ---------------------------------------------------
  alpha Z        PSCENC =      1224.38942132
  Ewald energy   TEWEN  =    -18799.21678190
  -Hartree energ DENC   =     -4746.40210850
  -exchange      EXHF   =         0.00000000
  -V(xc)+E(xc)   XCENC  =       621.56828236
  PAW double counting   =     22267.96283456   -22968.04257735
  entropy T*S    EENTRO =        -0.00700555
  eigenvalues    EBANDS =     -1974.59437649
  atomic energy  EATOM  =     24304.10294433
  ---------------------------------------------------
  free energy    TOTEN  =       -70.24085833 eV

  energy without entropy =      -70.23385278  energy(sigma->0) =      -70.23852315


--------------------------------------------------------------------------------------------------------




--------------------------------------- Iteration      1(   8)  ---------------------------------------


    POTLOK:  cpu time      0.0215: real time      0.0217
    SETDIJ:  cpu time      0.0077: real time      0.0077
    TRIAL :  cpu time      2.5691: real time      2.5949
    CORREC:  cpu time      1.0751: real time      1.0866
    CHARGE:  cpu time      0.1576: real time      0.1585
    --------------------------------------------
      LOOP:  cpu time      3.8406: real time      3.8930

 eigenvalue-minimisations  :     0
 total energy-change (2. order) :-0.1428405E+02  (-0.3391340E+01)
 number of electron     155.9999819 magnetization       6.5136093
 augmentation part       83.5193215 magnetization       4.8694468

 Free energy of the ion-electron system (eV)
  ---------------------------------------------------
  alpha Z        PSCENC =      1224.38942132
  Ewald energy   TEWEN  =    -18799.21678190
  -Hartree energ DENC   =     -5023.58753222
  -exchange      EXHF   =         0.00000000
  -V(xc)+E(xc)   XCENC  =       633.24392538
  PAW double counting   =     22525.27859856   -23279.06145596
  entropy T*S    EENTRO =         0.00279407
  eigenvalues    EBANDS =     -1669.66702212
  atomic energy  EATOM  =     24304.10294433
  ---------------------------------------------------
  free energy    TOTEN  =       -84.52490815 eV

  energy without entropy =      -84.52770223  energy(sigma->0) =      -84.52583951


--------------------------------------------------------------------------------------------------------




--------------------------------------- Iteration      1(   9)  ---------------------------------------


    POTLOK:  cpu time      0.0218: real time      0.0220
    SETDIJ:  cpu time      0.0082: real time      0.0083
    TRIAL :  cpu time      2.6143: real time      2.6400
    CORREC:  cpu time      1.0658: real time      1.0770
    CHARGE:  cpu time      0.1543: real time      0.1551
    --------------------------------------------
      LOOP:  cpu time      3.8728: real time      3.9256

 eigenvalue-minimisations  :     0
 total energy-change (2. order) :-0.3409315E+01  (-0.6282435E+00)
 number of electron     155.9999818 magnetization       6.5823863
 augmentation part       83.8250642 magnetization       4.9183299

 Free energy of the ion-electron system (eV)
  ---------------------------------------------------
  alpha Z        PSCENC =      1224.38942132
  Ewald energy   TEWEN  =    -18799.21678190
  -Hartree energ DENC   =     -5176.58428563
  -exchange      EXHF   =         0.00000000
  -V(xc)+E(xc)   XCENC  =       639.82985149
  PAW double counting   =     22730.84083281   -23510.26845992
  entropy T*S    EENTRO =         0.00381685
  eigenvalues    EBANDS =     -1501.03053988
  atomic energy  EATOM  =     24304.10294433
  ---------------------------------------------------
  free energy    TOTEN  =       -87.93422330 eV

  energy without entropy =      -87.93804015  energy(sigma->0) =      -87.93549559


--------------------------------------------------------------------------------------------------------




--------------------------------------- Iteration      1(  10)  ---------------------------------------


    POTLOK:  cpu time      0.0217: real time      0.0219
    SETDIJ:  cpu time      0.0078: real time      0.0078
    TRIAL :  cpu time      2.6970: real time      2.7223
    CORREC:  cpu time      1.0592: real time      1.0705
    CHARGE:  cpu time      0.1535: real time      0.1543
    --------------------------------------------
      LOOP:  cpu time      3.9485: real time      4.0005

 eigenvalue-minimisations  :     0
 total energy-change (2. order) :-0.7956027E+00  (-0.1214063E+01)
 number of electron     155.9999818 magnetization       6.6312990
 augmentation part       84.2913937 magnetization       4.9891138

 Free energy of the ion-electron system (eV)
  ---------------------------------------------------
  alpha Z        PSCENC =      1224.38942132
  Ewald energy   TEWEN  =    -18799.21678190
  -Hartree energ DENC   =     -5215.31418822
  -exchange      EXHF   =         0.00000000
  -V(xc)+E(xc)   XCENC  =       641.50365034
  PAW double counting   =     22786.23082478   -23570.50035549
  entropy T*S    EENTRO =         0.00463253
  eigenvalues    EBANDS =     -1459.92915800
  atomic energy  EATOM  =     24304.10294433
  ---------------------------------------------------
  free energy    TOTEN  =       -88.72982599 eV

  energy without entropy =      -88.73445852  energy(sigma->0) =      -88.73137016


--------------------------------------------------------------------------------------------------------




--------------------------------------- Iteration      1(  11)  ---------------------------------------


    POTLOK:  cpu time      0.0217: real time      0.0219
    SETDIJ:  cpu time      0.0079: real time      0.0080
    TRIAL :  cpu time      2.6041: real time      2.6294
    CORREC:  cpu time      1.0620: real time      1.0735
    CHARGE:  cpu time      0.1539: real time      0.1547
    --------------------------------------------
      LOOP:  cpu time      3.8728: real time      3.9110

 eigenvalue-minimisations  :     0
 total energy-change (2. order) :-0.1267804E+01  (-0.3997458E+00)
 number of electron     155.9999818 magnetization       6.6556895
 augmentation part       84.4590358 magnetization       5.0294859

 Free energy of the ion-electron system (eV)
  ---------------------------------------------------
  alpha Z        PSCENC =      1224.38942132
  Ewald energy   TEWEN  =    -18799.21678190
  -Hartree energ DENC   =     -5264.76045858
  -exchange      EXHF   =         0.00000000
  -V(xc)+E(xc)   XCENC  =       643.84417406
  PAW double counting   =     22853.67813617   -23638.60420159
  entropy T*S    EENTRO =         0.00781543
  eigenvalues    EBANDS =     -1413.43549589
  atomic energy  EATOM  =     24304.10294433
  ---------------------------------------------------
  free energy    TOTEN  =       -89.99762955 eV

  energy without entropy =      -90.00544498  energy(sigma->0) =      -90.00023469


--------------------------------------------------------------------------------------------------------




--------------------------------------- Iteration      1(  12)  ---------------------------------------


    POTLOK:  cpu time      0.0213: real time      0.0215
    SETDIJ:  cpu time      0.0084: real time      0.0084
    TRIAL :  cpu time      2.6627: real time      2.6883
    CORREC:  cpu time      1.0706: real time      1.0818
    CHARGE:  cpu time      0.2899: real time      0.2922
    --------------------------------------------
      LOOP:  cpu time      4.0628: real time      4.1158

 eigenvalue-minimisations  :     0
 total energy-change (2. order) :-0.5776629E+00  (-0.3857905E+00)
 number of electron     155.9999818 magnetization       6.7057210
 augmentation part       84.5413962 magnetization       5.0815178

 Free energy of the ion-electron system (eV)
  ---------------------------------------------------
  alpha Z        PSCENC =      1224.38942132
  Ewald energy   TEWEN  =    -18799.21678190
  -Hartree energ DENC   =     -5280.16289480
  -exchange      EXHF   =         0.00000000
  -V(xc)+E(xc)   XCENC  =       644.67011876
  PAW double counting   =     22879.48723457   -23663.31188964
  entropy T*S    EENTRO =         0.01201131
  eigenvalues    EBANDS =     -1400.54126048
  atomic energy  EATOM  =     24304.10294433
  ---------------------------------------------------
  free energy    TOTEN  =       -90.57529240 eV

  energy without entropy =      -90.58730371  energy(sigma->0) =      -90.57929617


--------------------------------------------------------------------------------------------------------




--------------------------------------- Iteration      1(  13)  ---------------------------------------


    POTLOK:  cpu time      0.0218: real time      0.0221
    SETDIJ:  cpu time      0.0078: real time      0.0078
    TRIAL :  cpu time      2.6583: real time      2.6845
    CORREC:  cpu time      1.0657: real time      1.0773
    CHARGE:  cpu time      0.1507: real time      0.1515
    --------------------------------------------
      LOOP:  cpu time      3.9128: real time      3.9660

 eigenvalue-minimisations  :     0
 total energy-change (2. order) :-0.4004366E+00  (-0.3919169E+00)
 number of electron     155.9999819 magnetization       6.8441899
 augmentation part       84.6038213 magnetization       5.1780608

 Free energy of the ion-electron system (eV)
  ---------------------------------------------------
  alpha Z        PSCENC =      1224.38942132
  Ewald energy   TEWEN  =    -18799.21678190
  -Hartree energ DENC   =     -5285.05417784
  -exchange      EXHF   =         0.00000000
  -V(xc)+E(xc)   XCENC  =       645.05003627
  PAW double counting   =     22887.57095028   -23668.78865162
  entropy T*S    EENTRO =         0.01768879
  eigenvalues    EBANDS =     -1399.04148110
  atomic energy  EATOM  =     24304.10294433
  ---------------------------------------------------
  free energy    TOTEN  =       -90.97572896 eV

  energy without entropy =      -90.99341775  energy(sigma->0) =      -90.98162523


--------------------------------------------------------------------------------------------------------




--------------------------------------- Iteration      1(  14)  ---------------------------------------


    POTLOK:  cpu time      0.0212: real time      0.0214
    SETDIJ:  cpu time      0.0083: real time      0.0083
    TRIAL :  cpu time      2.6150: real time      2.6411
    CORREC:  cpu time      1.0688: real time      1.0799
    CHARGE:  cpu time      0.1531: real time      0.1539
    --------------------------------------------
      LOOP:  cpu time      3.8747: real time      3.9286

 eigenvalue-minimisations  :     0
 total energy-change (2. order) :-0.3962077E+00  (-0.1631681E+00)
 number of electron     155.9999819 magnetization       6.9134280
 augmentation part       84.6211654 magnetization       5.2197795

 Free energy of the ion-electron system (eV)
  ---------------------------------------------------
  alpha Z        PSCENC =      1224.38942132
  Ewald energy   TEWEN  =    -18799.21678190
  -Hartree energ DENC   =     -5285.66977476
  -exchange      EXHF   =         0.00000000
  -V(xc)+E(xc)   XCENC  =       645.29854019
  PAW double counting   =     22883.54509136   -23658.51292414
  entropy T*S    EENTRO =         0.01977955
  eigenvalues    EBANDS =     -1405.32614189
  atomic energy  EATOM  =     24304.10294433
  ---------------------------------------------------
  free energy    TOTEN  =       -91.37193670 eV

  energy without entropy =      -91.39171625  energy(sigma->0) =      -91.37852989


--------------------------------------------------------------------------------------------------------




--------------------------------------- Iteration      1(  15)  ---------------------------------------


    POTLOK:  cpu time      0.0216: real time      0.0218
    SETDIJ:  cpu time      0.0087: real time      0.0087
    TRIAL :  cpu time      2.7585: real time      2.7843
    CORREC:  cpu time      1.0784: real time      1.0898
    CHARGE:  cpu time      0.1509: real time      0.1517
    --------------------------------------------
      LOOP:  cpu time      4.0268: real time      4.0797

 eigenvalue-minimisations  :     0
 total energy-change (2. order) :-0.2019232E+00  (-0.1156884E+00)
 number of electron     155.9999819 magnetization       6.9463880
 augmentation part       84.6225094 magnetization       5.2388361

 Free energy of the ion-electron system (eV)
  ---------------------------------------------------
  alpha Z        PSCENC =      1224.38942132
  Ewald energy   TEWEN  =    -18799.21678190
  -Hartree energ DENC   =     -5285.59764523
  -exchange      EXHF   =         0.00000000
  -V(xc)+E(xc)   XCENC  =       645.37019200
  PAW double counting   =     22879.62299279   -23651.44409698
  entropy T*S    EENTRO =         0.01951891
  eigenvalues    EBANDS =     -1408.82066578
  atomic energy  EATOM  =     24304.10294433
  ---------------------------------------------------
  free energy    TOTEN  =       -91.57385988 eV

  energy without entropy =      -91.59337879  energy(sigma->0) =      -91.58036618


--------------------------------------------------------------------------------------------------------




--------------------------------------- Iteration      1(  16)  ---------------------------------------


    POTLOK:  cpu time      0.0209: real time      0.0211
    SETDIJ:  cpu time      0.0089: real time      0.0090
    TRIAL :  cpu time      2.5949: real time      2.6211
    CORREC:  cpu time      1.0777: real time      1.0889
    CHARGE:  cpu time      0.1505: real time      0.1513
    --------------------------------------------
      LOOP:  cpu time      3.8610: real time      3.9151

 eigenvalue-minimisations  :     0
 total energy-change (2. order) :-0.1206390E+00  (-0.1600534E+00)
 number of electron     155.9999819 magnetization       6.9643976
 augmentation part       84.6153701 magnetization       5.2582622

 Free energy of the ion-electron system (eV)
  ---------------------------------------------------
  alpha Z        PSCENC =      1224.38942132
  Ewald energy   TEWEN  =    -18799.21678190
  -Hartree energ DENC   =     -5285.75991041
  -exchange      EXHF   =         0.00000000
  -V(xc)+E(xc)   XCENC  =       645.39180079
  PAW double counting   =     22874.20672949   -23643.88350516
  entropy T*S    EENTRO =         0.01711289
  eigenvalues    EBANDS =     -1410.94471624
  atomic energy  EATOM  =     24304.10294433
  ---------------------------------------------------
  free energy    TOTEN  =       -91.69449886 eV

  energy without entropy =      -91.71161175  energy(sigma->0) =      -91.70020316


--------------------------------------------------------------------------------------------------------




--------------------------------------- Iteration      1(  17)  ---------------------------------------


    POTLOK:  cpu time      0.0214: real time      0.0216
    SETDIJ:  cpu time      0.0081: real time      0.0082
    TRIAL :  cpu time      2.6925: real time      2.7192
    CORREC:  cpu time      1.0609: real time      1.0722
    CHARGE:  cpu time      0.2671: real time      0.2683
    --------------------------------------------
      LOOP:  cpu time      4.0594: real time      4.1215

 eigenvalue-minimisations  :     0
 total energy-change (2. order) :-0.1620283E+00  (-0.1607627E+00)
 number of electron     155.9999820 magnetization       6.9713257
[...]
     78      11.7982     -0.01960
     79      11.8100     -0.01700
     80      12.0335     -0.00021
     81      12.0762     -0.00006
     82      12.2537     -0.00000
     83      12.3586     -0.00000
     84      12.4410     -0.00000
     85      12.4735     -0.00000
     86      12.6115     -0.00000
     87      12.6154     -0.00000
     88      13.0653     -0.00000
     89      13.1806     -0.00000
     90      13.2853     -0.00000
     91      13.3132     -0.00000
     92      13.5166     -0.00000
     93      13.9141     -0.00000
     94      13.9230     -0.00000
     95      14.0914     -0.00000
     96      14.5288     -0.00000
     97      14.5783     -0.00000
     98      14.6059     -0.00000
     99      15.1781     -0.00000
    100      17.5718      0.00000
    101      19.7666      0.00000
    102      19.8089      0.00000
    103      19.8764      0.00000
    104      20.6882      0.00000
    105      20.8443      0.00000
    106      21.4244      0.00000
    107      21.5504      0.00000
    108      21.9706      0.00000
    109      22.1206      0.00000
    110      22.5378      0.00000
    111      22.6118      0.00000
    112      27.0475      0.00000
    113      27.1343      0.00000
    114      27.5151      0.00000
    115      27.5386      0.00000
    116      27.8964      0.00000
    117      28.0247      0.00000
    118      28.8944      0.00000
    119      29.0348      0.00000
    120      29.5056      0.00000
    121      29.5461      0.00000
    122      29.5700      0.00000
    123      30.1434      0.00000
    124      31.2930      0.00000
    125      31.5239      0.00000
    126      31.7349      0.00000
    127      31.9220      0.00000
    128      32.7555      0.00000


--------------------------------------------------------------------------------------------------------


 soft charge-density along one line, spin component           1
         0         1         2         3         4         5         6         7         8         9
 total charge-density along one line
 
 soft charge-density along one line, spin component           2
         0         1         2         3         4         5         6         7         8         9
 total charge-density along one line
 
 pseudopotential strength for first ion, spin component:           1
-41.940   0.000   0.000   6.348  -0.000  -0.000   0.000  -0.001
  0.000 -41.972  -0.000  -0.000   6.361   0.000   0.000  -0.000
  0.000  -0.000 -41.919  -0.000   0.000   6.338  -0.000   0.000
  6.348  -0.000  -0.000   5.956  -0.000  -0.000  -0.000   0.001
 -0.000   6.361   0.000  -0.000   5.952   0.000  -0.000   0.000
 -0.000   0.000   6.338  -0.000   0.000   5.956   0.000  -0.000
  0.000   0.000  -0.000  -0.000  -0.000   0.000   0.339  -0.000
 -0.001  -0.000   0.000   0.001   0.000  -0.000  -0.000   0.352
  0.000  -0.002  -0.000  -0.000   0.002   0.000  -0.000   0.000
  0.000   0.000  -0.010  -0.000  -0.000   0.006   0.000   0.000
  0.000  -0.004   0.000  -0.000   0.003  -0.000   0.000  -0.000
  0.000   0.000  -0.000  -0.000  -0.000   0.000  -0.214  -0.000
 -0.001  -0.000   0.000   0.001   0.000  -0.000  -0.000  -0.201
  0.000  -0.002  -0.000  -0.000   0.002   0.000  -0.000   0.000
  0.000   0.000  -0.010  -0.000  -0.000   0.006   0.000   0.000
  0.000  -0.004   0.000  -0.000   0.003  -0.000   0.000  -0.000
  0.000   0.003  -0.000   0.000   0.001  -0.000  -0.000  -0.000
  0.000   0.008  -0.000   0.000   0.003  -0.000  -0.000  -0.000
 pseudopotential strength for first ion, spin component:           2
-43.645   0.000   0.000   7.068  -0.000  -0.000   0.000   0.004
  0.000 -43.712  -0.000  -0.000   7.094   0.000   0.000  -0.000
  0.000  -0.000 -43.579  -0.000   0.000   7.041  -0.000   0.000
  7.068  -0.000  -0.000   5.757  -0.000  -0.000  -0.000  -0.003
 -0.000   7.094   0.000  -0.000   5.751   0.000  -0.000   0.000
 -0.000   0.000   7.041  -0.000   0.000   5.760   0.000  -0.000
  0.000   0.000  -0.000  -0.000  -0.000   0.000  -0.947  -0.000
  0.004  -0.000   0.000  -0.003   0.000  -0.000  -0.000  -1.103
  0.000   0.012  -0.000  -0.000  -0.006   0.000  -0.000   0.000
  0.000   0.000   0.019  -0.000  -0.000  -0.009   0.000   0.000
  0.000   0.008   0.000  -0.000  -0.003  -0.000   0.000  -0.000
  0.000   0.000  -0.000  -0.000  -0.000   0.000  -1.479  -0.000
  0.004  -0.000   0.000  -0.003   0.000  -0.000  -0.000  -1.632
  0.000   0.011  -0.000  -0.000  -0.005   0.000  -0.000   0.000
  0.000   0.000   0.019  -0.000  -0.000  -0.009   0.000   0.000
  0.000   0.008   0.000  -0.000  -0.003  -0.000   0.000  -0.000
  0.000  -0.004  -0.000   0.000   0.003  -0.000  -0.000  -0.000
  0.000  -0.011  -0.000   0.000   0.007  -0.000  -0.000  -0.000
 total augmentation occupancy for first ion, spin component:           1
  1.992   0.000   0.000  -0.024   0.000   0.000   0.000  -0.005   0.000   0.000   0.000   0.000   0.005  -0.000   0.000  -0.000
  0.000   1.992   0.000  -0.000  -0.025   0.000   0.000   0.000  -0.003   0.000   0.002   0.000  -0.000   0.003   0.000  -0.002
  0.000   0.000   1.992   0.000   0.000  -0.025  -0.000   0.000   0.000  -0.002   0.000  -0.000   0.000   0.000   0.002   0.000
 -0.024  -0.000   0.000   0.220   0.000   0.000   0.000  -0.011  -0.000  -0.000   0.000   0.000   0.015   0.000   0.000   0.000
  0.000  -0.025   0.000   0.000   0.221   0.000   0.000   0.000  -0.010   0.000   0.012   0.000   0.000   0.004   0.000  -0.019
  0.000   0.000  -0.025   0.000   0.000   0.199  -0.000   0.000   0.000   0.005   0.000   0.000   0.000   0.000  -0.019  -0.000
  0.000   0.000  -0.000   0.000   0.000  -0.000   2.471  -0.000   0.000   0.000   0.000  -1.499   0.000   0.000  -0.000   0.000
 -0.005   0.000   0.000  -0.011   0.000   0.000  -0.000   2.911   0.000   0.000   0.000  -0.000  -2.269   0.000   0.000   0.000
  0.000  -0.003   0.000  -0.000  -0.010   0.000   0.000   0.000   3.225   0.000   0.220   0.000  -0.000  -2.012   0.000  -0.105
  0.000   0.000  -0.002  -0.000   0.000   0.005   0.000   0.000   0.000   2.401   0.000   0.000   0.000   0.000  -1.454   0.000
  0.000   0.002   0.000   0.000   0.012   0.000   0.000   0.000   0.220   0.000   3.004   0.000  -0.000  -0.107   0.000  -1.896
  0.000   0.000  -0.000   0.000   0.000   0.000  -1.499  -0.000   0.000   0.000   0.000   1.935   0.000   0.000   0.000   0.000
  0.005  -0.000   0.000   0.015   0.000   0.000   0.000  -2.269  -0.000   0.000  -0.000   0.000   2.867   0.000   0.000   0.000
 -0.000   0.003   0.000   0.000   0.004   0.000   0.000   0.000  -2.012   0.000  -0.107   0.000   0.000   2.133   0.000   0.034
  0.000   0.000   0.002   0.000   0.000  -0.019  -0.000   0.000   0.000  -1.454   0.000   0.000   0.000   0.000   1.891   0.000
 -0.000  -0.002   0.000   0.000  -0.019  -0.000   0.000   0.000  -0.105   0.000  -1.896   0.000   0.000   0.034   0.000   2.097
 -0.000  -0.001   0.000   0.000   0.002   0.000   0.000   0.000  -0.120   0.000   0.208   0.000   0.000   0.091   0.000  -0.167
  0.000   0.001  -0.000   0.000  -0.000   0.000   0.000   0.000   0.012   0.000  -0.013   0.000   0.000  -0.008   0.000   0.010
 total augmentation occupancy for first ion, spin component:           2
  0.002   0.000   0.000   0.007   0.000   0.000   0.000   0.003  -0.000   0.000   0.000   0.000  -0.003  -0.000  -0.000  -0.000
  0.000   0.002   0.000   0.000   0.006  -0.000   0.000   0.000   0.005   0.000   0.004   0.000  -0.000  -0.006   0.000  -0.004
  0.000   0.000   0.002   0.000  -0.000   0.007   0.000   0.000   0.000   0.010   0.000   0.000  -0.000   0.000  -0.011   0.000
  0.007   0.000   0.000  -0.007   0.000   0.000   0.000   0.014  -0.000  -0.000   0.000   0.000  -0.015   0.000  -0.000   0.000
  0.000   0.006  -0.000   0.000  -0.001   0.000   0.000   0.000  -0.010   0.000  -0.041  -0.000   0.000  -0.005   0.000   0.019
  0.000  -0.000   0.007   0.000   0.000  -0.004   0.000   0.000   0.000  -0.070  -0.000   0.000   0.000  -0.000   0.022   0.000
  0.000   0.000   0.000   0.000   0.000   0.000  -1.531   0.000   0.000  -0.000   0.000   0.653  -0.000   0.000   0.000   0.000
  0.003   0.000   0.000   0.014   0.000   0.000   0.000  -1.613   0.000   0.000   0.000  -0.000   0.499   0.000   0.000  -0.000
 -0.000   0.005   0.000  -0.000  -0.010   0.000   0.000   0.000  -2.122   0.000  -0.014   0.000   0.000   0.903   0.000   0.041
  0.000   0.000   0.010  -0.000   0.000  -0.070  -0.000   0.000   0.000  -1.376  -0.000   0.000   0.000   0.000   0.436   0.000
  0.000   0.004   0.000   0.000  -0.041  -0.000   0.000   0.000  -0.014  -0.000  -2.011   0.000   0.000   0.040   0.000   0.752
  0.000   0.000   0.000   0.000  -0.000   0.000   0.653  -0.000   0.000   0.000   0.000  -0.111   0.000   0.000   0.000   0.000
 -0.003  -0.000  -0.000  -0.015   0.000   0.000  -0.000   0.499   0.000   0.000   0.000   0.000   0.120  -0.000   0.000   0.000
 -0.000  -0.006   0.000   0.000  -0.005  -0.000   0.000   0.000   0.903   0.000   0.040   0.000  -0.000  -0.252   0.000  -0.053
 -0.000   0.000  -0.011  -0.000   0.000   0.022   0.000   0.000   0.000   0.436   0.000   0.000   0.000   0.000   0.104  -0.000
 -0.000  -0.004   0.000   0.000   0.019   0.000   0.000  -0.000   0.041   0.000   0.752   0.000   0.000  -0.053  -0.000  -0.078
  0.000  -0.002   0.000   0.000  -0.016   0.000   0.000   0.000  -0.023   0.000  -0.027   0.000   0.000   0.004   0.000   0.024
  0.000   0.000   0.000   0.000  -0.000  -0.000   0.000   0.000  -0.006   0.000   0.003   0.000   0.000   0.001   0.000  -0.001


------------------------ aborting loop because EDIFF is reached ----------------------------------------





 total charge

# of ion       s       p       d       tot
------------------------------------------
    1        0.385   6.403   6.124  12.911
    2        0.379   6.391   6.119  12.889
    3        0.381   6.396   6.105  12.883
    4        0.387   6.403   6.113  12.904
    5        0.385   6.402   6.100  12.887
    6        0.380   6.395   6.108  12.883
    7        0.385   6.403   6.124  12.911
    8        0.379   6.391   6.119  12.889
    9        0.381   6.396   6.105  12.883
   10        0.833   0.849   8.070   9.752
   11        0.833   0.838   8.077   9.748
   12        0.820   0.844   8.080   9.744
--------------------------------------------------
tot          5.929  60.110  79.245 145.284



 magnetization (x)

# of ion       s       p       d       tot
------------------------------------------
    1       -0.010  -0.007  -1.994  -2.010
    2        0.000  -0.011   2.327   2.316
    3        0.007   0.002   2.190   2.200
    4       -0.014  -0.021  -2.014  -2.049
    5        0.013   0.020   2.135   2.168
    6       -0.001  -0.014   2.379   2.365
    7       -0.010  -0.007  -1.994  -2.010
    8        0.000  -0.011   2.327   2.316
    9        0.007   0.002   2.190   2.200
   10        0.006   0.010  -0.051  -0.035
   11       -0.009  -0.021   0.095   0.065
   12       -0.035  -0.092   0.346   0.218
--------------------------------------------------
tot         -0.047  -0.149   7.938   7.742
 
    FORLOC:  cpu time      0.0009: real time      0.0009
    FORNL :  cpu time      0.6546: real time      0.6585
    STRESS:  cpu time      3.9565: real time      3.9898
    FORCOR:  cpu time      0.0214: real time      0.0216
    OFIELD:  cpu time      0.0001: real time      0.0001

  FORCE on cell =-STRESS in cart. coord.  units (eV):
  Direction    XX          YY          ZZ          XY          YZ          ZX
  --------------------------------------------------------------------------------------
  Alpha Z  1224.38942  1224.38942  1224.38942
  Ewald   -6261.56222 -6261.56222 -6276.14008     0.00000     0.00000    -0.00000
  Hartree  1772.32779  1772.32779  1759.02564    -0.00000    -0.00000    -0.00000
  E(xc)    -946.53742  -946.53742  -946.50399    -0.00000     0.00000    -0.00000
  Local    1274.35898  1274.35898  1306.34099     0.00000     0.00000     0.00000
  n-local  -192.50523  -205.27797  -198.26961    16.28507     0.15693     0.24484
  augment  1435.78035  1435.78035  1432.60114    -0.00000     0.00000    -0.00000
  Kinetic  1728.95159  1706.06951  1715.96366     5.31328     0.09021     0.17387
  Fock        0.00000     0.00000     0.00000     0.00000     0.00000     0.00000
  -------------------------------------------------------------------------------------
  Total      17.37586    17.37586    17.40716     0.00000     0.00000     0.00000
  in kB     200.28204   200.28204   200.64289     0.00000     0.00000     0.00000
  external pressure =      200.40 kB  Pullay stress =        0.00 kB


 VOLUME and BASIS-vectors are now :
 -----------------------------------------------------------------------------
  energy-cutoff  :      520.00
  volume of cell :      139.00
      direct lattice vectors                 reciprocal lattice vectors
     3.582424361  0.000000000  0.000000000     0.279140576  0.000000000  0.000000000
     0.000000000  3.582424361  0.000000000     0.000000000  0.279140576 -0.000000000
     0.000000000  0.000000000 10.830805113     0.000000000  0.000000000  0.092329240

  length of vectors
     3.582424361  3.582424361 10.830805113     0.279140576  0.279140576  0.092329240


 FORCES acting on ions:
    Electron-Ion                     Ewald-Force                    Non-Local-Force
 -----------------------------------------------------------------------------------------------
   0.199E-11 0.107E-10 -.829E+01   -.327E-13 0.278E-13 0.748E+01   0.309E-19 -.127E-17 0.818E+00
   0.199E-11 0.118E-10 -.256E+02   -.625E-13 0.166E-13 0.260E+02   0.126E-18 -.645E-18 -.418E+00
   0.200E-11 0.468E-12 0.398E+02   -.250E-13 0.832E-14 -.409E+02   0.369E-18 0.193E-17 0.115E+01
   0.973E-12 -.432E-11 0.555E+02   0.211E-13 -.720E-13 -.537E+02   -.123E-18 -.371E-19 -.181E+01
   0.954E-12 -.444E-11 -.280E+02   0.763E-13 -.265E-13 0.293E+02   -.923E-19 -.131E-18 -.131E+01
   0.960E-12 -.501E-11 -.214E+02   0.687E-13 -.338E-13 0.215E+02   0.334E-18 0.280E-18 -.111E+00
   0.967E-12 0.201E-11 -.829E+01   0.810E-14 -.184E-13 0.748E+01   -.172E-17 -.642E-19 0.818E+00
   0.974E-12 0.251E-11 -.256E+02   0.275E-13 -.349E-13 0.260E+02   -.339E-18 0.355E-18 -.418E+00
   0.963E-12 0.730E-11 0.398E+02   0.205E-13 -.134E-13 -.409E+02   -.183E-18 -.921E-18 0.115E+01
   0.191E-12 -.661E-11 0.192E+02   -.130E-13 0.363E-13 -.193E+02   0.949E-20 0.710E-19 0.915E-01
   0.194E-12 -.692E-11 -.325E+02   -.409E-13 0.910E-14 0.327E+02   0.235E-18 -.325E-18 -.109E+00
   0.197E-12 -.632E-11 -.437E+01   -.226E-13 0.658E-13 0.424E+01   0.558E-18 0.952E-19 0.128E+00
 -----------------------------------------------------------------------------------------------
   0.125E-10 0.973E-12 0.963E-02   0.254E-13 -.352E-13 -.469E-12   -.800E-18 -.660E-18 -.160E-01
 
 
 POSITION                                       TOTAL-FORCE (eV/Angst)
 -----------------------------------------------------------------------------------
      3.58242      1.79121      1.80261        -0.000000      0.000000      0.005182
      3.58242      1.79121      5.40730        -0.000000     -0.000000     -0.001756
      3.58242      1.79121      9.04240        -0.000000     -0.000000     -0.004766
      1.79121      1.79121      0.03524         0.000000      0.000000      0.004230
      1.79121      1.79121      3.60871        -0.000000      0.000000      0.001612
      1.79121      1.79121      7.20569        -0.000000      0.000000      0.003539
      1.79121      3.58242      1.80261         0.000000      0.000000      0.005182
      1.79121      3.58242      5.40730         0.000000     -0.000000     -0.001756
      1.79121      3.58242      9.04240        -0.000000     -0.000000     -0.004766
      3.58242      3.58242     10.82326         0.000000     -0.000000     -0.008262
      3.58242      3.58242      3.58061        -0.000000      0.000000      0.004252
      3.58242      3.58242      7.22669         0.000000     -0.000000     -0.002692
 -----------------------------------------------------------------------------------
    total drift:                                0.000000      0.000000     -0.006387


--------------------------------------------------------------------------------------------------------



  FREE ENERGIE OF THE ION-ELECTRON SYSTEM (eV)
  ---------------------------------------------------
  free  energy   TOTEN  =       -92.50127965 eV

  energy  without entropy=      -92.51321437  energy(sigma->0) =      -92.50525789
 
 d Force = 0.1377307E-04[-0.483E-06, 0.280E-04]  d Energy = 0.4991975E-04-0.361E-04
 d Force = 0.3065788E-01[ 0.293E-01, 0.320E-01]  d Ewald  = 0.2721516E-01 0.344E-02


--------------------------------------------------------------------------------------------------------


    POTLOK:  cpu time      0.0362: real time      0.0364


--------------------------------------------------------------------------------------------------------


 Steepest descent step on ions:
 trial-energy change:   -0.000050  1 .order   -0.000028   -0.000050   -0.000007
  (g-gl).g = 0.497E-04      g.g   = 0.497E-04  gl.gl    = 0.000E+00
 g(Force)  = 0.280E-04   g(Stress)= 0.217E-04 ortho     = 0.000E+00
 gamma     =   0.00000
 trial     =   1.00000
 opt step  =   1.03994  (harmonic =   1.16568) maximal distance =0.00044545
 next E    =   -92.501280   (d E  =  -0.00005)


--------------------------------------------------------------------------------------------------------


  
 reached required accuracy - stopping structural energy minimisation
     LOOP+:  cpu time     57.6793: real time     58.4442
    4ORBIT:  cpu time      0.0000: real time      0.0000



 total charge

# of ion       s       p       d       tot
------------------------------------------
    1        0.385   6.403   6.124  12.911
    2        0.379   6.391   6.119  12.889
    3        0.381   6.396   6.105  12.883
    4        0.387   6.403   6.113  12.904
    5        0.385   6.402   6.100  12.887
    6        0.380   6.395   6.108  12.883
    7        0.385   6.403   6.124  12.911
    8        0.379   6.391   6.119  12.889
    9        0.381   6.396   6.105  12.883
   10        0.833   0.849   8.070   9.752
   11        0.833   0.838   8.077   9.748
   12        0.820   0.844   8.080   9.744
--------------------------------------------------
tot          5.929  60.110  79.245 145.284



 magnetization (x)

# of ion       s       p       d       tot
------------------------------------------
    1       -0.010  -0.007  -1.994  -2.010
    2        0.000  -0.011   2.327   2.316
    3        0.007   0.002   2.190   2.200
    4       -0.014  -0.021  -2.014  -2.049
    5        0.013   0.020   2.135   2.168
    6       -0.001  -0.014   2.379   2.365
    7       -0.010  -0.007  -1.994  -2.010
    8        0.000  -0.011   2.327   2.316
    9        0.007   0.002   2.190   2.200
   10        0.006   0.010  -0.051  -0.035
   11       -0.009  -0.021   0.095   0.065
   12       -0.035  -0.092   0.346   0.218
--------------------------------------------------
tot         -0.047  -0.149   7.938   7.742
 

 total amount of memory used by VASP MPI-rank0   259171. kBytes
=======================================================================

   base      :      30000. kBytes
   nonl-proj :      92073. kBytes
   fftplans  :        888. kBytes
   grid      :       6813. kBytes
   one-center:        373. kBytes
   wavefun   :     129024. kBytes
 
  
  
 General timing and accounting informations for this job:
 ========================================================
  
                  Total CPU time used (sec):      361.977
                            User time (sec):      352.869
                          System time (sec):        9.107
                         Elapsed time (sec):      371.448
  
                   Maximum memory used (kb):     1184520.
                   Average memory used (kb):          N/A
  
                          Minor page faults:       186229
                          Major page faults:          984
                 Voluntary context switches:        15939
