       N       E                     dE             d eps       ncg     rms          ort
DAV:   1     0.176609902598E+04    0.17661E+04   -0.91404E+04 10752   0.200E+03
DAV:   2     0.622109657199E+01   -0.17599E+04   -0.16672E+04 10752   0.482E+02
DAV:   3    -0.102557811524E+03   -0.10878E+03   -0.10713E+03 10752   0.128E+02
DAV:   4    -0.104111467950E+03   -0.15537E+01   -0.15533E+01 10752   0.153E+01
DAV:   5    -0.104140548878E+03   -0.29081E-01   -0.29080E-01 10752   0.204E+00
SDA:   6    -0.585533277716E+02    0.45587E+02   -0.29080E-01 10752   0.224E+03 0.000E+00
CGA:   7    -0.871245590263E+02   -0.28571E+02   -0.28367E+02 10752   0.167E+02 0.131E+00
CGA:   8    -0.906384125583E+02   -0.35139E+01   -0.35124E+01 10752   0.425E+02 0.532E-01
CGA:   9    -0.916315209384E+02   -0.99311E+00   -0.77704E+00 10752   0.535E+01 0.123E+02
CGA:  10    -0.918143805015E+02   -0.18286E+00   -0.19507E+00 10752   0.536E+01-0.382E+00
CGA:  11    -0.924491369093E+02   -0.63476E+00   -0.63219E+00 10752   0.227E+02 0.187E-01
CGA:  12    -0.928163732913E+02   -0.36724E+00   -0.23568E+00 10752   0.116E+02 0.135E+02
CGA:  13    -0.930618841144E+02   -0.24551E+00   -0.24471E+00 10752   0.817E+00 0.364E-01
CGA:  14    -0.931948383611E+02   -0.13295E+00   -0.13295E+00 10752   0.649E+00 0.183E-02
CGA:  15    -0.932802929145E+02   -0.85455E-01   -0.85618E-01 10752   0.327E+00 0.150E-02
CGA:  16    -0.933341529155E+02   -0.53860E-01   -0.53839E-01 10752   0.614E+00 0.276E-02
CGA:  17    -0.933555072679E+02   -0.21354E-01   -0.21875E-01 10752   0.163E+00-0.122E-01
CGA:  18    -0.933759778923E+02   -0.20471E-01   -0.20536E-01 10752   0.160E+00 0.103E-02
CGA:  19    -0.933942367865E+02   -0.18259E-01   -0.18326E-01 10752   0.102E+00 0.692E-03
CGA:  20    -0.933973464053E+02   -0.31096E-02   -0.31547E-02 10752   0.242E-01-0.842E-03
CGA:  21    -0.934073533136E+02   -0.10007E-01   -0.98882E-02 10752   0.413E-01 0.458E-03
CGA:  22    -0.934087764841E+02   -0.14232E-02   -0.14316E-02 10752   0.159E-01-0.231E-03
CGA:  23    -0.934127830146E+02   -0.40065E-02   -0.40359E-02 10752   0.307E-01-0.300E-03
CGA:  24    -0.934143339456E+02   -0.15509E-02   -0.15395E-02 10752   0.127E-01-0.230E-03
CGA:  25    -0.934148550673E+02   -0.52112E-03   -0.51628E-03 10752   0.186E-02-0.854E-04
CGA:  26    -0.934151946107E+02   -0.33954E-03   -0.34105E-03 10752   0.470E-02-0.393E-04
CGA:  27    -0.934153639043E+02   -0.16929E-03   -0.16717E-03 10752   0.390E-03-0.214E-04
CGA:  28    -0.934154356794E+02   -0.71775E-04   -0.72468E-04 10752   0.589E-03-0.156E-04
CGA:  29    -0.934154575077E+02   -0.21828E-04   -0.21409E-04 10752   0.239E-03-0.359E-05
CGA:  30    -0.934154904196E+02   -0.32912E-04   -0.32913E-04 10752   0.196E-03-0.365E-07
CGA:  31    -0.934155189550E+02   -0.28535E-04   -0.28501E-04 10752   0.134E-03 0.589E-05
CGA:  32    -0.934155248878E+02   -0.59328E-05   -0.60939E-05 10752   0.103E-03 0.191E-05
CGA:  33    -0.934155414514E+02   -0.16564E-04   -0.16438E-04 10752   0.325E-04 0.588E-05
CGA:  34    -0.934155438078E+02   -0.23564E-05   -0.23751E-05 10752   0.222E-04 0.425E-06
CGA:  35    -0.934155450614E+02   -0.12536E-05   -0.12382E-05 10752   0.204E-04-0.990E-07
CGA:  36    -0.934155479005E+02   -0.28391E-05   -0.28527E-05 10752   0.267E-05-0.106E-05
CGA:  37    -0.934155480905E+02   -0.19000E-06   -0.20045E-06 10752   0.413E-05 0.263E-06
   1 F= -.93415548E+02 E0= -.93418336E+02  d E =-.934155E+02  mag=    24.8281
