       N       E                     dE             d eps       ncg     rms          rms(c)
DAV:   1     0.176849435893E+04    0.17685E+04   -0.84090E+04 43072   0.182E+03
DAV:   2     0.642406954344E+01   -0.17621E+04   -0.16697E+04 43008   0.482E+02
DAV:   3    -0.102598938903E+03   -0.10902E+03   -0.10741E+03 50496   0.128E+02
DAV:   4    -0.104158073188E+03   -0.15591E+01   -0.15586E+01 45952   0.154E+01
DAV:   5    -0.104187239621E+03   -0.29166E-01   -0.29165E-01 52736   0.204E+00    0.399E+01
DAV:   6    -0.100079699908E+03    0.41075E+01   -0.61835E+01 48352   0.502E+01    0.335E+01
DAV:   7    -0.960551177247E+02    0.40246E+01   -0.82783E+01 49760   0.401E+01    0.216E+01
DAV:   8    -0.938224430996E+02    0.22327E+01   -0.43562E+00 48512   0.120E+01    0.107E+01
DAV:   9    -0.953459816807E+02   -0.15235E+01   -0.16354E+01 52384   0.157E+01    0.222E+01
DAV:  10    -0.934263749324E+02    0.19196E+01   -0.54113E+00 51744   0.121E+01    0.629E+00
DAV:  11    -0.940032696984E+02   -0.57689E+00   -0.41082E+00 52448   0.129E+01    0.126E+01
DAV:  12    -0.933935495733E+02    0.60972E+00   -0.30349E+00 52608   0.788E+00    0.319E+00
DAV:  13    -0.935456803048E+02   -0.15213E+00   -0.49634E-01 50208   0.680E+00    0.591E+00
DAV:  14    -0.934128273306E+02    0.13285E+00   -0.37374E-01 49984   0.440E+00    0.112E+00
DAV:  15    -0.934173354896E+02   -0.45082E-02   -0.18565E-02 51328   0.890E-01    0.563E-01
DAV:  16    -0.934185213320E+02   -0.11858E-02   -0.38608E-03 51872   0.410E-01    0.345E-01
DAV:  17    -0.934190659028E+02   -0.54457E-03   -0.11678E-03 51008   0.251E-01    0.167E-01
DAV:  18    -0.934192178426E+02   -0.15194E-03   -0.28467E-04 53120   0.121E-01    0.879E-02
DAV:  19    -0.934192449050E+02   -0.27062E-04   -0.11130E-04 48608   0.933E-02    0.355E-02
DAV:  20    -0.934192778539E+02   -0.32949E-04   -0.48397E-05 51808   0.322E-02    0.297E-02
DAV:  21    -0.934192785885E+02   -0.73460E-06   -0.10436E-05 48832   0.198E-02    0.189E-02
DAV:  22    -0.934192797894E+02   -0.12009E-05   -0.10568E-05 38176   0.215E-02    0.120E-02
DAV:  23    -0.934192790393E+02    0.75006E-06   -0.12549E-06 28256   0.835E-03
   1 F= -.93419279E+02 E0= -.93419279E+02  d E =0.000000E+00  mag=    24.9308
