 vasp.6.4.3 19Mar24 (build Mar 26 2024 14:05:37) complex                        
  
 executed on             LinuxIFC date 2024.12.16  08:28:56
 running  128 mpi-ranks, on    1 nodes
 distrk:  each k-point on   32 cores,    4 groups
 distr:  one band on NCORE=   1 cores,   32 groups


--------------------------------------------------------------------------------------------------------


 INCAR:
   ALGO = Normal
   EDIFF = 1e-06
   EDIFFG = -0.01
   ENCUT = 520
   GGA = Pe
   IBRION = -1
   ISIF = 4
   ISMEAR = -5
   ISPIN = 2
   KPAR = 4
   LCHARG = True
   LORBIT = 11
   LREAL = False
   LWAVE = False
   MAGMOM = 1*2.667 1*2.668 1*2.667 1*2.666 2*2.668 1*2.667 1*2.668 1*2.667 3*0.3
   NELM = 200
   NSW = 0
   PREC = Accurate
   SIGMA = 0.2

 POTCAR:    PAW_PBE Fe_pv 02Aug2007               
 POTCAR:    PAW_PBE Pt 04Feb2005                  
 -----------------------------------------------------------------------------
|                                                                             |
|           W    W    AA    RRRRR   N    N  II  N    N   GGGG   !!!           |
|           W    W   A  A   R    R  NN   N  II  NN   N  G    G  !!!           |
|           W    W  A    A  R    R  N N  N  II  N N  N  G       !!!           |
|           W WW W  AAAAAA  RRRRR   N  N N  II  N  N N  G  GGG   !            |
|           WW  WW  A    A  R   R   N   NN  II  N   NN  G    G                |
|           W    W  A    A  R    R  N    N  II  N    N   GGGG   !!!           |
|                                                                             |
|     For optimal performance we recommend to set                             |
|       NCORE = 2 up to number-of-cores-per-socket                            |
|     NCORE specifies how many cores store one orbital (NPAR=cpu/NCORE).      |
|     This setting can greatly improve the performance of VASP for DFT.       |
|     The default, NCORE=1 might be grossly inefficient on modern             |
|     multi-core architectures or massively parallel machines. Do your        |
|     own testing! More info at https://www.vasp.at/wiki/index.php/NCORE      |
|     Unfortunately you need to use the default for GW and RPA                |
|     calculations (for HF NCORE is supported but not extensively tested      |
|     yet).                                                                   |
|                                                                             |
 -----------------------------------------------------------------------------

 POTCAR:    PAW_PBE Fe_pv 02Aug2007               
   SHA256 =  5d22e414b1f82158bf2c7ecb8b97b28fd0923e48cadc1c3bf74d524558f5dd32 Fe_pv/POTCAR          
   COPYR  = (c) Copyright 02Aug2007 Georg Kresse                                                    
   COPYR  = This file is part of the software VASP. Any use, copying, and all other rights are regul
   COPYR  = If you do not have a valid VASP license, you may not use, copy or distribute this file. 
   VRHFIN =Fe:  3pd7s1                                                                              
   LEXCH  = PE                                                                                      
   EATOM  =  2457.4239 eV,  180.6156 Ry                                                             
                                                                                                    
   TITEL  = PAW_PBE Fe_pv 02Aug2007                                                                 
   LULTRA =        F    use ultrasoft PP ?                                                          
   IUNSCR =        1    unscreen: 0-lin 1-nonlin 2-no                                               
   RPACOR =    1.750    partial core radius                                                         
   POMASS =   55.847; ZVAL   =   14.000    mass and valenz                                          
   RCORE  =    2.200    outmost cutoff radius                                                       
   RWIGS  =    2.200; RWIGS  =    1.164    wigner-seitz radius (au A)                               
   ENMAX  =  293.238; ENMIN  =  219.928 eV                                                          
   ICORE  =        3    local potential                                                             
   LCOR   =        T    correct aug charges                                                         
   LPAW   =        T    paw PP                                                                      
   EAUG   =  578.342                                                                                
   DEXC   =    0.000                                                                                
   RMAX   =    2.249    core radius for proj-oper                                                   
   RAUG   =    1.300    factor for augmentation sphere                                              
   RDEP   =    2.296    radius for radial grids                                                     
   RDEPT  =    1.766    core radius for aug-charge                                                  
                                                                                                    
   Atomic configuration                                                                             
    8 entries                                                                                       
     n  l   j            E        occ.                                                              
     1  0  0.50     -6993.8440   2.0000                                                             
     2  0  0.50      -814.6047   2.0000                                                             
     2  1  1.50      -693.3689   6.0000                                                             
     3  0  0.50       -89.4732   2.0000                                                             
     3  1  1.50       -55.6373   6.0000                                                             
     3  2  2.50        -3.8151   7.0000                                                             
     4  0  0.50        -4.2551   1.0000                                                             
     4  3  2.50        -1.3606   0.0000                                                             
   Description                                                                                      
     l       E           TYP  RCUT    TYP  RCUT                                                     
     1    -55.6372668     23  2.000                                                                 
     1     -5.4423304     23  2.000                                                                 
     2     -3.8151096     23  2.200                                                                 
     2     -5.1756922     23  2.200                                                                 
     0     -4.2550951     23  2.200                                                                 
     0     27.2116520     23  2.200                                                                 
     3     -1.3605826     23  2.200                                                                 
  local pseudopotential read in
  partial core-charges read in
  partial kinetic energy density read in
  atomic valenz-charges read in
  non local Contribution for L=           1  read in
    real space projection operators read in
  non local Contribution for L=           1  read in
    real space projection operators read in
  non local Contribution for L=           2  read in
    real space projection operators read in
  non local Contribution for L=           2  read in
    real space projection operators read in
  non local Contribution for L=           0  read in
    real space projection operators read in
  non local Contribution for L=           0  read in
    real space projection operators read in
    PAW grid and wavefunctions read in
 
   number of l-projection  operators is LMAX  =           6
   number of lm-projection operators is LMMAX =          18
 
 POTCAR:    PAW_PBE Pt 04Feb2005                  
   SHA256 =  3ed90460adef76debcff1cfb73ee1349b515b1a3db03439735b44de3a8db7dc8 Pt/POTCAR             
   COPYR  = (c) Copyright 04Feb2005 Georg Kresse                                                    
   COPYR  = This file is part of the software VASP. Any use, copying, and all other rights are regul
   COPYR  = If you do not have a valid VASP license, you may not use, copy or distribute this file. 
   VRHFIN =Pt: s1d9                                                                                 
   LEXCH  = PE                                                                                      
   EATOM  =   729.1176 eV,   53.5886 Ry                                                             
                                                                                                    
   TITEL  = PAW_PBE Pt 04Feb2005                                                                    
   LULTRA =        F    use ultrasoft PP ?                                                          
   IUNSCR =        1    unscreen: 0-lin 1-nonlin 2-no                                               
   RPACOR =    2.330    partial core radius                                                         
   POMASS =  195.080; ZVAL   =   10.000    mass and valenz                                          
   RCORE  =    2.600    outmost cutoff radius                                                       
   RWIGS  =    2.750; RWIGS  =    1.455    wigner-seitz radius (au A)                               
   ENMAX  =  230.283; ENMIN  =  172.712 eV                                                          
   ICORE  =        3    local potential                                                             
   LCOR   =        T    correct aug charges                                                         
   LPAW   =        T    paw PP                                                                      
   EAUG   =  358.966                                                                                
   DEXC   =    0.000                                                                                
   RMAX   =    2.658    core radius for proj-oper                                                   
   RAUG   =    1.300    factor for augmentation sphere                                              
   RDEP   =    2.761    radius for radial grids                                                     
   RDEPT  =    2.203    core radius for aug-charge                                                  
                                                                                                    
   Atomic configuration                                                                             
   16 entries                                                                                       
     n  l   j            E        occ.                                                              
     1  0  0.50    -78401.1885   2.0000                                                             
     2  0  0.50    -13770.7750   2.0000                                                             
     2  1  1.50    -11931.0468   6.0000                                                             
     3  0  0.50     -3234.7234   2.0000                                                             
     3  1  1.50     -2699.2216   6.0000                                                             
     3  2  2.50     -2119.5714  10.0000                                                             
     4  0  0.50      -695.1528   2.0000                                                             
     4  1  1.50      -519.6034   6.0000                                                             
     4  2  2.50      -306.6786  10.0000                                                             
     4  3  3.50       -70.1041  14.0000                                                             
     5  0  0.50      -101.7747   2.0000                                                             
     5  1  1.50       -55.9873   6.0000                                                             
     5  2  2.50        -6.1423   9.0000                                                             
     6  0  0.50        -5.6573   1.0000                                                             
     6  1  1.50        -6.8029   0.0000                                                             
     5  3  2.50        -1.3606   0.0000                                                             
   Description                                                                                      
     l       E           TYP  RCUT    TYP  RCUT                                                     
     2     -6.1423404     23  2.500                                                                 
     2     -7.5029230     23  2.500                                                                 
     0     -5.6573207     23  2.500                                                                 
     0      0.7416693     23  2.500                                                                 
     1     -2.7211652     23  2.600                                                                 
     1     20.4087390     23  2.600                                                                 
     3     -1.3605826     23  2.500                                                                 
  local pseudopotential read in
  partial core-charges read in
  partial kinetic energy density read in
  atomic valenz-charges read in
  non local Contribution for L=           2  read in
    real space projection operators read in
  non local Contribution for L=           2  read in
    real space projection operators read in
  non local Contribution for L=           0  read in
    real space projection operators read in
  non local Contribution for L=           0  read in
    real space projection operators read in
  non local Contribution for L=           1  read in
    real space projection operators read in
  non local Contribution for L=           1  read in
    real space projection operators read in
    PAW grid and wavefunctions read in
 
   number of l-projection  operators is LMAX  =           6
   number of lm-projection operators is LMMAX =          18
 
  PAW_PBE Fe_pv 02Aug2007               :
 energy of atom  1       EATOM=-2457.4239
 kinetic energy error for atom=    0.0062 (will be added to EATOM!!)
  PAW_PBE Pt 04Feb2005                  :
 energy of atom  2       EATOM= -729.1176
 kinetic energy error for atom=    0.0032 (will be added to EATOM!!)
 
 
 POSCAR: Fe9 Pt3
  positions in direct lattice
  velocities in cartesian coordinates


 exchange-correlation table for PE
   RHO(1)=    0.500       N(1)  =     2000
   RHO(2)=  100.500       N(2)  =     4000
 


--------------------------------------------------------------------------------------------------------


 ion  position               nearest neighbor table
   1  0.000  0.500  0.167-   7 2.61   7 2.61   7 2.61   7 2.61  10 2.61   4 2.61  10 2.61   4 2.61
                             5 2.61   5 2.61  11 2.61  11 2.61
   2  0.000  0.500  0.500-   8 2.61   8 2.61   8 2.61   8 2.61  11 2.61  12 2.61  12 2.61  11 2.61
                             5 2.61   6 2.61   5 2.61   6 2.61
   3  0.000  0.500  0.833-   9 2.61   9 2.61   9 2.61   9 2.61  10 2.61   4 2.61  10 2.61   4 2.61
                             6 2.61   6 2.61  12 2.61  12 2.61
   4  0.500  0.500  0.000-  10 2.61  10 2.61  10 2.61  10 2.61   1 2.61   7 2.61   9 2.61   3 2.61
                             1 2.61   3 2.61   7 2.61   9 2.61
   5  0.500  0.500  0.333-  11 2.61  11 2.61  11 2.61  11 2.61   7 2.61   1 2.61   1 2.61   7 2.61
                             8 2.61   2 2.61   8 2.61   2 2.61
   6  0.500  0.500  0.667-  12 2.61  12 2.61  12 2.61  12 2.61   9 2.61   3 2.61   3 2.61   9 2.61
                             2 2.61   8 2.61   2 2.61   8 2.61
   7  0.500  0.000  0.167-   1 2.61   1 2.61   1 2.61   1 2.61   4 2.61  10 2.61  10 2.61   4 2.61
                             5 2.61   5 2.61  11 2.61  11 2.61
   8  0.500  0.000  0.500-   2 2.61   2 2.61   2 2.61   2 2.61  12 2.61  11 2.61  12 2.61  11 2.61
                             6 2.61   5 2.61   5 2.61   6 2.61
   9  0.500  0.000  0.833-   3 2.61   3 2.61   3 2.61   3 2.61   4 2.61  10 2.61  10 2.61   4 2.61
                             6 2.61   6 2.61  12 2.61  12 2.61
  10  0.000  0.000  0.000-   4 2.61   4 2.61   4 2.61   4 2.61   9 2.61   1 2.61   3 2.61   3 2.61
                             1 2.61   7 2.61   9 2.61   7 2.61
  11  0.000  0.000  0.333-   5 2.61   5 2.61   5 2.61   5 2.61   2 2.61   8 2.61   8 2.61   2 2.61
                             1 2.61   7 2.61   7 2.61   1 2.61
  12  0.000  0.000  0.667-   6 2.61   6 2.61   6 2.61   6 2.61   2 2.61   8 2.61   8 2.61   2 2.61
                             3 2.61   3 2.61   9 2.61   9 2.61
 
  LATTYP: Found a simple tetragonal cell.
 ALAT       =     3.6910793746
 C/A-ratio  =     3.0027335306
  
  Lattice vectors:
  
 A1 = (   3.6910793746,   0.0000000000,   0.0000000000)
 A2 = (   0.0000000000,   3.6910793746,   0.0000000000)
 A3 = (   0.0000000000,   0.0000000000,  11.0833278022)


Analysis of symmetry for initial positions (statically):
=====================================================================
 Subroutine PRICEL returns:
 Original cell was already a primitive cell.
 

 Routine SETGRP: Setting up the symmetry group for a 
 simple tetragonal supercell.


 Subroutine GETGRP returns: Found 16 space group operations
 (whereof 16 operations were pure point group operations)
 out of a pool of 16 trial point group operations.


The static configuration has the point symmetry D_4h.


Analysis of symmetry for dynamics (positions and initial velocities):
=====================================================================
 Subroutine PRICEL returns:
 Original cell was already a primitive cell.
 

 Routine SETGRP: Setting up the symmetry group for a 
 simple tetragonal supercell.


 Subroutine GETGRP returns: Found 16 space group operations
 (whereof 16 operations were pure point group operations)
 out of a pool of 16 trial point group operations.


The dynamic configuration has the point symmetry D_4h.


Analysis of structural, dynamic, and magnetic symmetry:
=====================================================================
 Subroutine PRICEL returns:
 Original cell was already a primitive cell.
 

 Routine SETGRP: Setting up the symmetry group for a 
 simple tetragonal supercell.


 Subroutine GETGRP returns: Found 16 space group operations
 (whereof 16 operations were pure point group operations)
 out of a pool of 16 trial point group operations.


The overall configuration has the point symmetry D_4h.


 Subroutine INISYM returns: Found 16 space group operations
 (whereof 16 operations are pure point group operations),
 and found     1 'primitive' translations


----------------------------------------------------------------------------------------

                                     Primitive cell                                     

  volume of cell :     151.0000

  direct lattice vectors                    reciprocal lattice vectors
     3.691079375  0.000000000  0.000000000     0.270923461  0.000000000  0.000000000
     0.000000000  3.691079375  0.000000000     0.000000000  0.270923461  0.000000000
     0.000000000  0.000000000 11.083327802     0.000000000  0.000000000  0.090225609

  length of vectors
     3.691079375  3.691079375 11.083327802     0.270923461  0.270923461  0.090225609

  position of ions in fractional coordinates (direct lattice)
     0.000000000  0.500000000  0.166611204
     0.000000000  0.500000000  0.500000000
     0.000000000  0.500000000  0.833388796
     0.500000000  0.500000000  0.000000000
     0.500000000  0.500000000  0.333261410
     0.500000000  0.500000000  0.666738590
     0.500000000  0.000000000  0.166611204
     0.500000000  0.000000000  0.500000000
     0.500000000  0.000000000  0.833388796
     0.000000000  0.000000000  0.000000000
     0.000000000  0.000000000  0.333324505
     0.000000000  0.000000000  0.666675495

  ion indices of the primitive-cell ions
   primitive index   ion index
                 1           1
                 2           2
                 3           3
                 4           4
                 5           5
                 6           6
                 7           7
                 8           8
                 9           9
                10          10
                11          11
                12          12

----------------------------------------------------------------------------------------

 
 
 KPOINTS: pymatgen with grid density = 8800 / numb

Automatic generation of k-mesh.
 Grid dimensions read from file:
 generate k-points for:   13   13    4

 Generating k-lattice:

  Cartesian coordinates                     Fractional coordinates (reciprocal lattice)
     0.020840266  0.000000000  0.000000000     0.076923077  0.000000000  0.000000000
     0.000000000  0.020840266  0.000000000     0.000000000  0.076923077  0.000000000
     0.000000000  0.000000000  0.022556402     0.000000000  0.000000000  0.250000000

  Length of vectors
     0.020840266  0.020840266  0.022556402

  Shift w.r.t. Gamma in fractional coordinates (k-lattice)
     0.000000000  0.000000000  0.000000000

 TETIRR: Found   1010 inequivalent tetrahedra from     4056
 
 Subroutine IBZKPT returns following result:
 ===========================================
 
 Found     84 irreducible k-points:
 
 Following reciprocal coordinates:
            Coordinates               Weight
  0.000000  0.000000  0.000000      1.000000
  0.076923  0.000000  0.000000      4.000000
  0.153846  0.000000  0.000000      4.000000
  0.230769  0.000000  0.000000      4.000000
  0.307692  0.000000  0.000000      4.000000
  0.384615  0.000000  0.000000      4.000000
  0.461538  0.000000  0.000000      4.000000
  0.076923  0.076923  0.000000      4.000000
  0.153846  0.076923  0.000000      8.000000
  0.230769  0.076923  0.000000      8.000000
  0.307692  0.076923  0.000000      8.000000
  0.384615  0.076923  0.000000      8.000000
  0.461538  0.076923  0.000000      8.000000
  0.153846  0.153846  0.000000      4.000000
  0.230769  0.153846  0.000000      8.000000
  0.307692  0.153846  0.000000      8.000000
  0.384615  0.153846  0.000000      8.000000
  0.461538  0.153846  0.000000      8.000000
  0.230769  0.230769  0.000000      4.000000
  0.307692  0.230769  0.000000      8.000000
  0.384615  0.230769  0.000000      8.000000
  0.461538  0.230769  0.000000      8.000000
  0.307692  0.307692  0.000000      4.000000
  0.384615  0.307692  0.000000      8.000000
  0.461538  0.307692  0.000000      8.000000
  0.384615  0.384615  0.000000      4.000000
  0.461538  0.384615  0.000000      8.000000
  0.461538  0.461538  0.000000      4.000000
  0.000000  0.000000  0.250000      2.000000
  0.076923  0.000000  0.250000      8.000000
  0.153846  0.000000  0.250000      8.000000
  0.230769  0.000000  0.250000      8.000000
  0.307692  0.000000  0.250000      8.000000
  0.384615  0.000000  0.250000      8.000000
  0.461538  0.000000  0.250000      8.000000
  0.076923  0.076923  0.250000      8.000000
  0.153846  0.076923  0.250000     16.000000
  0.230769  0.076923  0.250000     16.000000
  0.307692  0.076923  0.250000     16.000000
  0.384615  0.076923  0.250000     16.000000
  0.461538  0.076923  0.250000     16.000000
  0.153846  0.153846  0.250000      8.000000
  0.230769  0.153846  0.250000     16.000000
  0.307692  0.153846  0.250000     16.000000
  0.384615  0.153846  0.250000     16.000000
  0.461538  0.153846  0.250000     16.000000
  0.230769  0.230769  0.250000      8.000000
  0.307692  0.230769  0.250000     16.000000
  0.384615  0.230769  0.250000     16.000000
  0.461538  0.230769  0.250000     16.000000
  0.307692  0.307692  0.250000      8.000000
  0.384615  0.307692  0.250000     16.000000
  0.461538  0.307692  0.250000     16.000000
  0.384615  0.384615  0.250000      8.000000
  0.461538  0.384615  0.250000     16.000000
  0.461538  0.461538  0.250000      8.000000
  0.000000  0.000000  0.500000      1.000000
  0.076923  0.000000  0.500000      4.000000
  0.153846  0.000000  0.500000      4.000000
  0.230769  0.000000  0.500000      4.000000
  0.307692  0.000000  0.500000      4.000000
  0.384615  0.000000  0.500000      4.000000
  0.461538  0.000000  0.500000      4.000000
  0.076923  0.076923  0.500000      4.000000
  0.153846  0.076923  0.500000      8.000000
  0.230769  0.076923  0.500000      8.000000
  0.307692  0.076923  0.500000      8.000000
  0.384615  0.076923  0.500000      8.000000
  0.461538  0.076923  0.500000      8.000000
  0.153846  0.153846  0.500000      4.000000
  0.230769  0.153846  0.500000      8.000000
  0.307692  0.153846  0.500000      8.000000
  0.384615  0.153846  0.500000      8.000000
  0.461538  0.153846  0.500000      8.000000
  0.230769  0.230769  0.500000      4.000000
  0.307692  0.230769  0.500000      8.000000
  0.384615  0.230769  0.500000      8.000000
  0.461538  0.230769  0.500000      8.000000
  0.307692  0.307692  0.500000      4.000000
  0.384615  0.307692  0.500000      8.000000
  0.461538  0.307692  0.500000      8.000000
  0.384615  0.384615  0.500000      4.000000
  0.461538  0.384615  0.500000      8.000000
  0.461538  0.461538  0.500000      4.000000
 
 Following cartesian coordinates:
            Coordinates               Weight
  0.000000  0.000000  0.000000      1.000000
  0.020840  0.000000  0.000000      4.000000
  0.041681  0.000000  0.000000      4.000000
  0.062521  0.000000  0.000000      4.000000
  0.083361  0.000000  0.000000      4.000000
  0.104201  0.000000  0.000000      4.000000
  0.125042  0.000000  0.000000      4.000000
  0.020840  0.020840  0.000000      4.000000
  0.041681  0.020840  0.000000      8.000000
  0.062521  0.020840  0.000000      8.000000
  0.083361  0.020840  0.000000      8.000000
  0.104201  0.020840  0.000000      8.000000
  0.125042  0.020840  0.000000      8.000000
  0.041681  0.041681  0.000000      4.000000
  0.062521  0.041681  0.000000      8.000000
  0.083361  0.041681  0.000000      8.000000
  0.104201  0.041681  0.000000      8.000000
  0.125042  0.041681  0.000000      8.000000
  0.062521  0.062521  0.000000      4.000000
  0.083361  0.062521  0.000000      8.000000
  0.104201  0.062521  0.000000      8.000000
  0.125042  0.062521  0.000000      8.000000
  0.083361  0.083361  0.000000      4.000000
  0.104201  0.083361  0.000000      8.000000
  0.125042  0.083361  0.000000      8.000000
  0.104201  0.104201  0.000000      4.000000
  0.125042  0.104201  0.000000      8.000000
  0.125042  0.125042  0.000000      4.000000
  0.000000  0.000000  0.022556      2.000000
  0.020840  0.000000  0.022556      8.000000
  0.041681  0.000000  0.022556      8.000000
  0.062521  0.000000  0.022556      8.000000
  0.083361  0.000000  0.022556      8.000000
  0.104201  0.000000  0.022556      8.000000
  0.125042  0.000000  0.022556      8.000000
  0.020840  0.020840  0.022556      8.000000
  0.041681  0.020840  0.022556     16.000000
  0.062521  0.020840  0.022556     16.000000
  0.083361  0.020840  0.022556     16.000000
  0.104201  0.020840  0.022556     16.000000
  0.125042  0.020840  0.022556     16.000000
  0.041681  0.041681  0.022556      8.000000
  0.062521  0.041681  0.022556     16.000000
  0.083361  0.041681  0.022556     16.000000
  0.104201  0.041681  0.022556     16.000000
  0.125042  0.041681  0.022556     16.000000
  0.062521  0.062521  0.022556      8.000000
  0.083361  0.062521  0.022556     16.000000
  0.104201  0.062521  0.022556     16.000000
  0.125042  0.062521  0.022556     16.000000
  0.083361  0.083361  0.022556      8.000000
  0.104201  0.083361  0.022556     16.000000
  0.125042  0.083361  0.022556     16.000000
  0.104201  0.104201  0.022556      8.000000
  0.125042  0.104201  0.022556     16.000000
  0.125042  0.125042  0.022556      8.000000
  0.000000  0.000000  0.045113      1.000000
  0.020840  0.000000  0.045113      4.000000
  0.041681  0.000000  0.045113      4.000000
  0.062521  0.000000  0.045113      4.000000
  0.083361  0.000000  0.045113      4.000000
  0.104201  0.000000  0.045113      4.000000
  0.125042  0.000000  0.045113      4.000000
  0.020840  0.020840  0.045113      4.000000
  0.041681  0.020840  0.045113      8.000000
  0.062521  0.020840  0.045113      8.000000
  0.083361  0.020840  0.045113      8.000000
  0.104201  0.020840  0.045113      8.000000
  0.125042  0.020840  0.045113      8.000000
  0.041681  0.041681  0.045113      4.000000
  0.062521  0.041681  0.045113      8.000000
  0.083361  0.041681  0.045113      8.000000
  0.104201  0.041681  0.045113      8.000000
  0.125042  0.041681  0.045113      8.000000
  0.062521  0.062521  0.045113      4.000000
  0.083361  0.062521  0.045113      8.000000
  0.104201  0.062521  0.045113      8.000000
  0.125042  0.062521  0.045113      8.000000
  0.083361  0.083361  0.045113      4.000000
  0.104201  0.083361  0.045113      8.000000
  0.125042  0.083361  0.045113      8.000000
  0.104201  0.104201  0.045113      4.000000
  0.125042  0.104201  0.045113      8.000000
  0.125042  0.125042  0.045113      4.000000
 


--------------------------------------------------------------------------------------------------------




 Dimension of arrays:
   k-points           NKPTS =     84   k-points in BZ     NKDIM =     84   number of bands    NBANDS=    128
   number of dos      NEDOS =    301   number of ions     NIONS =     12
   non local maximal  LDIM  =      6   non local SUM 2l+1 LMDIM =     18
   total plane-waves  NPLWV =  65856
   max r-space proj   IRMAX =      1   max aug-charges    IRDMAX=  26612
   dimension x,y,z NGX =    28 NGY =   28 NGZ =   84
   dimension x,y,z NGXF=    56 NGYF=   56 NGZF=  168
   support grid    NGXF=    56 NGYF=   56 NGZF=  168
   ions per type =               9   3
   NGX,Y,Z   is equivalent  to a cutoff of  12.61, 12.61, 12.60 a.u.
   NGXF,Y,Z  is equivalent  to a cutoff of  25.22, 25.22, 25.20 a.u.

 SYSTEM =  unknown system                          
 POSCAR =  Fe9 Pt3                                 

 Startparameter for this run:
   NWRITE =      2    write-flag & timer
   PREC   = accura    normal or accurate (medium, high low for compatibility)
   ISTART =      0    job   : 0-new  1-cont  2-samecut
   ICHARG =      2    charge: 1-file 2-atom 10-const
   ISPIN  =      2    spin polarized calculation?
   LNONCOLLINEAR =      F non collinear calculations
   LSORBIT =      F    spin-orbit coupling
   INIWAV =      1    electr: 0-lowe 1-rand  2-diag
   LASPH  =      F    aspherical Exc in radial PAW
 Electronic Relaxation 1
   ENCUT  =  520.0 eV  38.22 Ry    6.18 a.u.   6.86  6.86 20.61*2*pi/ulx,y,z
   ENINI  =  520.0     initial cutoff
   ENAUG  =  578.3 eV  augmentation charge cutoff
   NELM   =    200;   NELMIN=  2; NELMDL=  0     # of ELM steps 
   EDIFF  = 0.1E-05   stopping-criterion for ELM
   LREAL  =      F    real-space projection
   NLSPLINE    = F    spline interpolate recip. space projectors
   LCOMPAT=      F    compatible to vasp.4.4
   GGA_COMPAT  = T    GGA compatible to vasp.4.4-vasp.4.6
   LMAXPAW     = -100 max onsite density
   LMAXMIX     =    2 max onsite mixed and CHGCAR
   VOSKOWN=      0    Vosko Wilk Nusair interpolation
   ROPT   =    0.00000   0.00000
 Ionic relaxation
   EDIFFG = -.1E-01   stopping-criterion for IOM
   NSW    =      0    number of steps for IOM
   NBLOCK =      1;   KBLOCK =      1    inner block; outer block 
   IBRION =     -1    ionic relax: 0-MD 1-quasi-New 2-CG
   NFREE  =      0    steps in history (QN), initial steepest desc. (CG)
   ISIF   =      4    stress and relaxation
   IWAVPR =     10    prediction:  0-non 1-charg 2-wave 3-comb
   ISYM   =      2    0-nonsym 1-usesym 2-fastsym
   LCORR  =      T    Harris-Foulkes like correction to forces

   POTIM  = 0.5000    time-step for ionic-motion
   TEIN   =    0.0    initial temperature
   TEBEG  =    0.0;   TEEND  =   0.0 temperature during run
   SMASS  =  -3.00    Nose mass-parameter (am)
   estimated Nose-frequenzy (Omega)   =  0.10E-29 period in steps = 0.13E+47 mass=  -0.311E-27a.u.
   SCALEE = 1.0000    scale energy and forces
   NPACO  =    256;   APACO  = 10.0  distance and # of slots for P.C.
   PSTRESS=    0.0 pullay stress

  Mass of Ions in am
   POMASS =  55.85195.08
  Ionic Valenz
   ZVAL   =  14.00 10.00
  Atomic Wigner-Seitz radii
   RWIGS  =  -1.00 -1.00
  virtual crystal weights 
   VCA    =   1.00  1.00
   NELECT =     156.0000    total number of electrons
   NUPDOWN=      -1.0000    fix difference up-down

 DOS related values:
   EMIN   =  10.00;   EMAX   =-10.00  energy-range for DOS
   EFERMI =   0.00;   METHOD = LEGACY      
   ISMEAR =    -5;   SIGMA  =   0.20  broadening in eV -4-tet -1-fermi 0-gaus

 Electronic relaxation 2 (details)
   IALGO  =     38    algorithm
   LDIAG  =      T    sub-space diagonalisation (order eigenvalues)
   LSUBROT=      F    optimize rotation matrix (better conditioning)
   TURBO    =      0    0=normal 1=particle mesh
   IRESTART =      0    0=no restart 2=restart with 2 vectors
   NREBOOT  =      0    no. of reboots
   NMIN     =      0    reboot dimension
   EREF     =   0.00    reference energy to select bands
   IMIX   =      4    mixing-type and parameters
     AMIX     =   0.40;   BMIX     =  1.00
     AMIX_MAG =   1.60;   BMIX_MAG =  1.00
     AMIN     =   0.10
     WC   =   100.;   INIMIX=   1;  MIXPRE=   1;  MAXMIX= -45

 Intra band minimization:
   WEIMIN = 0.0000     energy-eigenvalue tresh-hold
   EBREAK =  0.20E-08  absolut break condition
   DEPER  =   0.30     relativ break condition  

   TIME   =   0.40     timestep for ELM

  volume/ion in A,a.u.               =      12.58        84.92
  Fermi-wavevector in a.u.,A,eV,Ry     =   1.654972  3.127444 37.265448  2.738933
  Thomas-Fermi vector in A             =   2.743148
 
 Write flags
   LWAVE        =      F    write WAVECAR
   LDOWNSAMPLE  =      F    k-point downsampling of WAVECAR
   LCHARG       =      T    write CHGCAR
   LVTOT        =      F    write LOCPOT, total local potential
   LVHAR        =      F    write LOCPOT, Hartree potential only
   WRT_POTENTIAL= false  ! write potential to hdf5 file
   LELF         =      F    write electronic localiz. function (ELF)
   LORBIT       =     11    0 simple, 1 ext, 2 COOP (PROOUT), +10 PAW based schemes


 Dipole corrections
   LMONO      =      F    monopole corrections only (constant potential shift)
   LDIPOL     =      F    correct potential (dipole corrections)
   IDIPOL     =      0    1-x, 2-y, 3-z, 4-all directions 
   EPSILON    =  1.0000000 bulk dielectric constant
   LVACPOTAV  =      F  vacuum potentials using an averaging scheme for the charge density
   VACPOTFLAT =  0.1000000 required flatness to determine vacuum potential
 Exchange correlation treatment:
   GGA     = PE    functional components
   XC_C    = 1    coefficients multiplying the functional components
   LIBXC   =     F    Libxc                    
   VOSKOWN =     0    Vosko Wilk Nusair interpolation
   LHFCALC =     F    Hartree Fock is set to
   LHFONE  =     F    Hartree Fock one center treatment
   AEXX    =    0.0000 exact exchange contribution

 Parameters of functionals:
   PE:
     No parameter
 
 Van der Waals corrections
   IVDW    =     0    specifies the selected vdW correction

 Linear response parameters
   LEPSILON=     F    determine dielectric tensor
   LRPA    =     F    only Hartree local field effects (RPA)
   LNABLA  =     F    use nabla operator in PAW spheres
   LVEL    =     F    velocity operator in full k-point grid
   CSHIFT  =0.1000    complex shift for real part using Kramers Kronig
   OMEGAMAX=  -1.0    maximum frequency
   DEG_THRESHOLD= 0.2000000E-02 threshold for treating states as degnerate
   RTIME   =   -0.100 relaxation time in fs
  (WPLASMAI=    0.000 imaginary part of plasma frequency in eV, 0.658/RTIME)
   DFIELD  = 0.0000000 0.0000000 0.0000000 field for delta impulse in time
 
  Optional k-point grid parameters
   LKPOINTS_OPT  =     F    use optional k-point grid
   KPOINTS_OPT_MODE=     1    mode for optional k-point grid
 
 Orbital magnetization related:
   ORBITALMAG=     F  switch on orbital magnetization
   LCHIMAG   =     F  perturbation theory with respect to B field
   DQ        =  0.001000  dq finite difference perturbation B field
   LLRAUG    =     F  two centre corrections for induced B field
   LBONE     =     F  B-component reconstruction in AE one-centre
   LVGVCALC  =     T  calculate vGv susceptibility
   LVGVAPPL  =     F  apply vGv susceptibility instead of pGv for G=0

 Random number generation:
   RANDOM_GENERATOR = DEFAULT
   PCG_SEED         = not used


--------------------------------------------------------------------------------------------------------


 Static calculation
 charge density and potential will be updated during run
 spin polarized calculation
 Variant of blocked Davidson
 Davidson routine will perform the subspace rotation
 perform sub-space diagonalisation
    after iterative eigenvector-optimisation
 modified Broyden-mixing scheme, WC =      100.0
 initial mixing is a Kerker type mixing with AMIX =  0.4000 and BMIX =      1.0000
 Hartree-type preconditioning will be used
 using additional bands           50
 reciprocal scheme for non local part
 use partial core corrections
 calculate Harris-corrections to forces 
   (improved forces if not selfconsistent)
 use gradient corrections 
 use of overlap-Matrix (Vanderbilt PP)
 Fermi weights with tetrahedron method with Bloechl corrections


--------------------------------------------------------------------------------------------------------


  energy-cutoff  :      520.00
  volume of cell :      151.00
      direct lattice vectors                 reciprocal lattice vectors
     3.691079375  0.000000000  0.000000000     0.270923461  0.000000000  0.000000000
     0.000000000  3.691079375  0.000000000     0.000000000  0.270923461  0.000000000
     0.000000000  0.000000000 11.083327802     0.000000000  0.000000000  0.090225609

  length of vectors
     3.691079375  3.691079375 11.083327802     0.270923461  0.270923461  0.090225609


 
 k-points in units of 2pi/SCALE and weight: pymatgen with grid density = 8800 / numb
   0.00000000  0.00000000  0.00000000       0.001
   0.02084027  0.00000000  0.00000000       0.006
   0.04168053  0.00000000  0.00000000       0.006
   0.06252080  0.00000000  0.00000000       0.006
   0.08336107  0.00000000  0.00000000       0.006
   0.10420133  0.00000000  0.00000000       0.006
   0.12504160  0.00000000  0.00000000       0.006
   0.02084027  0.02084027  0.00000000       0.006
   0.04168053  0.02084027  0.00000000       0.012
   0.06252080  0.02084027  0.00000000       0.012
   0.08336107  0.02084027  0.00000000       0.012
   0.10420133  0.02084027  0.00000000       0.012
   0.12504160  0.02084027  0.00000000       0.012
   0.04168053  0.04168053  0.00000000       0.006
   0.06252080  0.04168053  0.00000000       0.012
   0.08336107  0.04168053  0.00000000       0.012
   0.10420133  0.04168053  0.00000000       0.012
   0.12504160  0.04168053  0.00000000       0.012
   0.06252080  0.06252080  0.00000000       0.006
   0.08336107  0.06252080  0.00000000       0.012
   0.10420133  0.06252080  0.00000000       0.012
   0.12504160  0.06252080  0.00000000       0.012
   0.08336107  0.08336107  0.00000000       0.006
   0.10420133  0.08336107  0.00000000       0.012
   0.12504160  0.08336107  0.00000000       0.012
   0.10420133  0.10420133  0.00000000       0.006
   0.12504160  0.10420133  0.00000000       0.012
   0.12504160  0.12504160  0.00000000       0.006
   0.00000000  0.00000000  0.02255640       0.003
   0.02084027  0.00000000  0.02255640       0.012
   0.04168053  0.00000000  0.02255640       0.012
   0.06252080  0.00000000  0.02255640       0.012
   0.08336107  0.00000000  0.02255640       0.012
   0.10420133  0.00000000  0.02255640       0.012
   0.12504160  0.00000000  0.02255640       0.012
   0.02084027  0.02084027  0.02255640       0.012
   0.04168053  0.02084027  0.02255640       0.024
   0.06252080  0.02084027  0.02255640       0.024
   0.08336107  0.02084027  0.02255640       0.024
   0.10420133  0.02084027  0.02255640       0.024
   0.12504160  0.02084027  0.02255640       0.024
   0.04168053  0.04168053  0.02255640       0.012
   0.06252080  0.04168053  0.02255640       0.024
   0.08336107  0.04168053  0.02255640       0.024
   0.10420133  0.04168053  0.02255640       0.024
   0.12504160  0.04168053  0.02255640       0.024
   0.06252080  0.06252080  0.02255640       0.012
   0.08336107  0.06252080  0.02255640       0.024
   0.10420133  0.06252080  0.02255640       0.024
   0.12504160  0.06252080  0.02255640       0.024
   0.08336107  0.08336107  0.02255640       0.012
   0.10420133  0.08336107  0.02255640       0.024
   0.12504160  0.08336107  0.02255640       0.024
   0.10420133  0.10420133  0.02255640       0.012
   0.12504160  0.10420133  0.02255640       0.024
   0.12504160  0.12504160  0.02255640       0.012
   0.00000000  0.00000000  0.04511280       0.001
   0.02084027  0.00000000  0.04511280       0.006
   0.04168053  0.00000000  0.04511280       0.006
   0.06252080  0.00000000  0.04511280       0.006
   0.08336107  0.00000000  0.04511280       0.006
   0.10420133  0.00000000  0.04511280       0.006
   0.12504160  0.00000000  0.04511280       0.006
   0.02084027  0.02084027  0.04511280       0.006
   0.04168053  0.02084027  0.04511280       0.012
   0.06252080  0.02084027  0.04511280       0.012
   0.08336107  0.02084027  0.04511280       0.012
   0.10420133  0.02084027  0.04511280       0.012
   0.12504160  0.02084027  0.04511280       0.012
   0.04168053  0.04168053  0.04511280       0.006
   0.06252080  0.04168053  0.04511280       0.012
   0.08336107  0.04168053  0.04511280       0.012
   0.10420133  0.04168053  0.04511280       0.012
   0.12504160  0.04168053  0.04511280       0.012
   0.06252080  0.06252080  0.04511280       0.006
   0.08336107  0.06252080  0.04511280       0.012
   0.10420133  0.06252080  0.04511280       0.012
   0.12504160  0.06252080  0.04511280       0.012
   0.08336107  0.08336107  0.04511280       0.006
   0.10420133  0.08336107  0.04511280       0.012
   0.12504160  0.08336107  0.04511280       0.012
   0.10420133  0.10420133  0.04511280       0.006
   0.12504160  0.10420133  0.04511280       0.012
   0.12504160  0.12504160  0.04511280       0.006
 
 k-points in reciprocal lattice and weights: pymatgen with grid density = 8800 / numb
   0.00000000  0.00000000  0.00000000       0.001
   0.07692308  0.00000000  0.00000000       0.006
   0.15384615  0.00000000  0.00000000       0.006
   0.23076923  0.00000000  0.00000000       0.006
   0.30769231  0.00000000  0.00000000       0.006
   0.38461538  0.00000000  0.00000000       0.006
   0.46153846  0.00000000  0.00000000       0.006
   0.07692308  0.07692308  0.00000000       0.006
   0.15384615  0.07692308  0.00000000       0.012
   0.23076923  0.07692308  0.00000000       0.012
   0.30769231  0.07692308  0.00000000       0.012
   0.38461538  0.07692308  0.00000000       0.012
   0.46153846  0.07692308  0.00000000       0.012
   0.15384615  0.15384615  0.00000000       0.006
   0.23076923  0.15384615  0.00000000       0.012
   0.30769231  0.15384615  0.00000000       0.012
   0.38461538  0.15384615  0.00000000       0.012
   0.46153846  0.15384615  0.00000000       0.012
   0.23076923  0.23076923  0.00000000       0.006
   0.30769231  0.23076923  0.00000000       0.012
   0.38461538  0.23076923  0.00000000       0.012
   0.46153846  0.23076923  0.00000000       0.012
   0.30769231  0.30769231  0.00000000       0.006
   0.38461538  0.30769231  0.00000000       0.012
   0.46153846  0.30769231  0.00000000       0.012
   0.38461538  0.38461538  0.00000000       0.006
   0.46153846  0.38461538  0.00000000       0.012
   0.46153846  0.46153846  0.00000000       0.006
   0.00000000  0.00000000  0.25000000       0.003
   0.07692308  0.00000000  0.25000000       0.012
   0.15384615  0.00000000  0.25000000       0.012
   0.23076923  0.00000000  0.25000000       0.012
   0.30769231  0.00000000  0.25000000       0.012
   0.38461538  0.00000000  0.25000000       0.012
   0.46153846  0.00000000  0.25000000       0.012
   0.07692308  0.07692308  0.25000000       0.012
   0.15384615  0.07692308  0.25000000       0.024
   0.23076923  0.07692308  0.25000000       0.024
   0.30769231  0.07692308  0.25000000       0.024
   0.38461538  0.07692308  0.25000000       0.024
   0.46153846  0.07692308  0.25000000       0.024
   0.15384615  0.15384615  0.25000000       0.012
   0.23076923  0.15384615  0.25000000       0.024
   0.30769231  0.15384615  0.25000000       0.024
   0.38461538  0.15384615  0.25000000       0.024
   0.46153846  0.15384615  0.25000000       0.024
   0.23076923  0.23076923  0.25000000       0.012
   0.30769231  0.23076923  0.25000000       0.024
   0.38461538  0.23076923  0.25000000       0.024
   0.46153846  0.23076923  0.25000000       0.024
   0.30769231  0.30769231  0.25000000       0.012
   0.38461538  0.30769231  0.25000000       0.024
   0.46153846  0.30769231  0.25000000       0.024
   0.38461538  0.38461538  0.25000000       0.012
   0.46153846  0.38461538  0.25000000       0.024
   0.46153846  0.46153846  0.25000000       0.012
   0.00000000  0.00000000  0.50000000       0.001
   0.07692308  0.00000000  0.50000000       0.006
   0.15384615  0.00000000  0.50000000       0.006
   0.23076923  0.00000000  0.50000000       0.006
   0.30769231  0.00000000  0.50000000       0.006
   0.38461538  0.00000000  0.50000000       0.006
   0.46153846  0.00000000  0.50000000       0.006
   0.07692308  0.07692308  0.50000000       0.006
   0.15384615  0.07692308  0.50000000       0.012
   0.23076923  0.07692308  0.50000000       0.012
   0.30769231  0.07692308  0.50000000       0.012
   0.38461538  0.07692308  0.50000000       0.012
   0.46153846  0.07692308  0.50000000       0.012
   0.15384615  0.15384615  0.50000000       0.006
   0.23076923  0.15384615  0.50000000       0.012
   0.30769231  0.15384615  0.50000000       0.012
   0.38461538  0.15384615  0.50000000       0.012
   0.46153846  0.15384615  0.50000000       0.012
   0.23076923  0.23076923  0.50000000       0.006
   0.30769231  0.23076923  0.50000000       0.012
   0.38461538  0.23076923  0.50000000       0.012
   0.46153846  0.23076923  0.50000000       0.012
   0.30769231  0.30769231  0.50000000       0.006
   0.38461538  0.30769231  0.50000000       0.012
   0.46153846  0.30769231  0.50000000       0.012
   0.38461538  0.38461538  0.50000000       0.006
   0.46153846  0.38461538  0.50000000       0.012
   0.46153846  0.46153846  0.50000000       0.006
 
 position of ions in fractional coordinates (direct lattice) 
   0.00000000  0.50000000  0.16661120
   0.00000000  0.50000000  0.50000000
   0.00000000  0.50000000  0.83338880
   0.50000000  0.50000000  0.00000000
   0.50000000  0.50000000  0.33326141
   0.50000000  0.50000000  0.66673859
   0.50000000  0.00000000  0.16661120
   0.50000000  0.00000000  0.50000000
   0.50000000  0.00000000  0.83338880
   0.00000000  0.00000000  0.00000000
   0.00000000  0.00000000  0.33332450
   0.00000000  0.00000000  0.66667550
 
 position of ions in cartesian coordinates  (Angst):
   0.00000000  1.84553969  1.84660659
   0.00000000  1.84553969  5.54166390
   0.00000000  1.84553969  9.23672121
   1.84553969  1.84553969  0.00000000
   1.84553969  1.84553969  3.69364545
   1.84553969  1.84553969  7.38968235
   1.84553969  0.00000000  1.84660659
   1.84553969  0.00000000  5.54166390
   1.84553969  0.00000000  9.23672121
   0.00000000  0.00000000  0.00000000
   0.00000000  0.00000000  3.69434475
   0.00000000  0.00000000  7.38898305
 


--------------------------------------------------------------------------------------------------------


 k-point     1 :   0.0000 0.0000 0.0000  plane waves:    4073
 k-point     2 :   0.0769 0.0000 0.0000  plane waves:    4061
 k-point     3 :   0.1538 0.0000 0.0000  plane waves:    4058
 k-point     4 :   0.2308 0.0000 0.0000  plane waves:    4046
 k-point     5 :   0.3077 0.0000 0.0000  plane waves:    4064
 k-point     6 :   0.3846 0.0000 0.0000  plane waves:    4068
 k-point     7 :   0.4615 0.0000 0.0000  plane waves:    4070
 k-point     8 :   0.0769 0.0769 0.0000  plane waves:    4061
 k-point     9 :   0.1538 0.0769 0.0000  plane waves:    4057
 k-point    10 :   0.2308 0.0769 0.0000  plane waves:    4048
 k-point    11 :   0.3077 0.0769 0.0000  plane waves:    4058
 k-point    12 :   0.3846 0.0769 0.0000  plane waves:    4060
 k-point    13 :   0.4615 0.0769 0.0000  plane waves:    4074
 k-point    14 :   0.1538 0.1538 0.0000  plane waves:    4068
 k-point    15 :   0.2308 0.1538 0.0000  plane waves:    4057
 k-point    16 :   0.3077 0.1538 0.0000  plane waves:    4059
 k-point    17 :   0.3846 0.1538 0.0000  plane waves:    4060
 k-point    18 :   0.4615 0.1538 0.0000  plane waves:    4064
 k-point    19 :   0.2308 0.2308 0.0000  plane waves:    4072
 k-point    20 :   0.3077 0.2308 0.0000  plane waves:    4080
 k-point    21 :   0.3846 0.2308 0.0000  plane waves:    4081
 k-point    22 :   0.4615 0.2308 0.0000  plane waves:    4083
 k-point    23 :   0.3077 0.3077 0.0000  plane waves:    4090
 k-point    24 :   0.3846 0.3077 0.0000  plane waves:    4082
 k-point    25 :   0.4615 0.3077 0.0000  plane waves:    4068
 k-point    26 :   0.3846 0.3846 0.0000  plane waves:    4080
 k-point    27 :   0.4615 0.3846 0.0000  plane waves:    4077
 k-point    28 :   0.4615 0.4615 0.0000  plane waves:    4102
 k-point    29 :   0.0000 0.0000 0.2500  plane waves:    4069
 k-point    30 :   0.0769 0.0000 0.2500  plane waves:    4062
 k-point    31 :   0.1538 0.0000 0.2500  plane waves:    4057
 k-point    32 :   0.2308 0.0000 0.2500  plane waves:    4057
 k-point    33 :   0.3077 0.0000 0.2500  plane waves:    4050
 k-point    34 :   0.3846 0.0000 0.2500  plane waves:    4059
 k-point    35 :   0.4615 0.0000 0.2500  plane waves:    4069
 k-point    36 :   0.0769 0.0769 0.2500  plane waves:    4059
 k-point    37 :   0.1538 0.0769 0.2500  plane waves:    4055
 k-point    38 :   0.2308 0.0769 0.2500  plane waves:    4055
 k-point    39 :   0.3077 0.0769 0.2500  plane waves:    4058
 k-point    40 :   0.3846 0.0769 0.2500  plane waves:    4065
 k-point    41 :   0.4615 0.0769 0.2500  plane waves:    4068
 k-point    42 :   0.1538 0.1538 0.2500  plane waves:    4049
 k-point    43 :   0.2308 0.1538 0.2500  plane waves:    4057
 k-point    44 :   0.3077 0.1538 0.2500  plane waves:    4059
 k-point    45 :   0.3846 0.1538 0.2500  plane waves:    4063
 k-point    46 :   0.4615 0.1538 0.2500  plane waves:    4064
 k-point    47 :   0.2308 0.2308 0.2500  plane waves:    4070
 k-point    48 :   0.3077 0.2308 0.2500  plane waves:    4071
 k-point    49 :   0.3846 0.2308 0.2500  plane waves:    4075
 k-point    50 :   0.4615 0.2308 0.2500  plane waves:    4077
 k-point    51 :   0.3077 0.3077 0.2500  plane waves:    4080
 k-point    52 :   0.3846 0.3077 0.2500  plane waves:    4081
 k-point    53 :   0.4615 0.3077 0.2500  plane waves:    4080
 k-point    54 :   0.3846 0.3846 0.2500  plane waves:    4080
 k-point    55 :   0.4615 0.3846 0.2500  plane waves:    4082
 k-point    56 :   0.4615 0.4615 0.2500  plane waves:    4073
 k-point    57 :   0.0000 0.0000 0.5000  plane waves:    4066
 k-point    58 :   0.0769 0.0000 0.5000  plane waves:    4064
 k-point    59 :   0.1538 0.0000 0.5000  plane waves:    4042
 k-point    60 :   0.2308 0.0000 0.5000  plane waves:    4058
 k-point    61 :   0.3077 0.0000 0.5000  plane waves:    4068
 k-point    62 :   0.3846 0.0000 0.5000  plane waves:    4050
 k-point    63 :   0.4615 0.0000 0.5000  plane waves:    4060
 k-point    64 :   0.0769 0.0769 0.5000  plane waves:    4060
 k-point    65 :   0.1538 0.0769 0.5000  plane waves:    4048
 k-point    66 :   0.2308 0.0769 0.5000  plane waves:    4056
 k-point    67 :   0.3077 0.0769 0.5000  plane waves:    4066
 k-point    68 :   0.3846 0.0769 0.5000  plane waves:    4060
 k-point    69 :   0.4615 0.0769 0.5000  plane waves:    4056
 k-point    70 :   0.1538 0.1538 0.5000  plane waves:    4040
 k-point    71 :   0.2308 0.1538 0.5000  plane waves:    4058
 k-point    72 :   0.3077 0.1538 0.5000  plane waves:    4068
 k-point    73 :   0.3846 0.1538 0.5000  plane waves:    4070
 k-point    74 :   0.4615 0.1538 0.5000  plane waves:    4060
 k-point    75 :   0.2308 0.2308 0.5000  plane waves:    4054
 k-point    76 :   0.3077 0.2308 0.5000  plane waves:    4068
 k-point    77 :   0.3846 0.2308 0.5000  plane waves:    4082
 k-point    78 :   0.4615 0.2308 0.5000  plane waves:    4064
 k-point    79 :   0.3077 0.3077 0.5000  plane waves:    4062
 k-point    80 :   0.3846 0.3077 0.5000  plane waves:    4066
 k-point    81 :   0.4615 0.3077 0.5000  plane waves:    4074
 k-point    82 :   0.3846 0.3846 0.5000  plane waves:    4078
 k-point    83 :   0.4615 0.3846 0.5000  plane waves:    4078
 k-point    84 :   0.4615 0.4615 0.5000  plane waves:    4088

 maximum and minimum number of plane-waves per node :      4102     4040

 maximum number of plane-waves:      4102
 maximum index in each direction: 
   IXMAX=    6   IYMAX=    6   IZMAX=   20
   IXMIN=   -7   IYMIN=   -7   IZMIN=  -21


 serial   3D FFT for wavefunctions
 parallel 3D FFT for charge:
    minimum data exchange during FFTs selected (reduces bandwidth)


 total amount of memory used by VASP MPI-rank0   185523. kBytes
=======================================================================

   base      :      30000. kBytes
   nonl-proj :     100657. kBytes
   fftplans  :        888. kBytes
   grid      :       6813. kBytes
   one-center:        373. kBytes
   wavefun   :      46792. kBytes
 
     INWAV:  cpu time      0.0000: real time      0.0005
 Broyden mixing: mesh for mixing (old mesh)
   NGX = 13   NGY = 13   NGZ = 41
  (NGX  = 56   NGY  = 56   NGZ  =168)
  gives a total of   6929 points

 initial charge density was supplied:
 charge density of overlapping atoms calculated
 number of electron     156.0000000 magnetization      24.9060000
 keeping initial charge density in first step


--------------------------------------------------------------------------------------------------------


 Maximum index for augmentation-charges         1049 (set IRDMAX)


--------------------------------------------------------------------------------------------------------


 First call to EWALD:  gamma=   0.333
 Maximum number of real-space cells 4x 4x 2
 Maximum number of reciprocal cells 2x 2x 5

    FEWALD:  cpu time      0.0018: real time      0.0018


--------------------------------------- Ionic step        1  -------------------------------------------




--------------------------------------- Iteration      1(   1)  ---------------------------------------


    POTLOK:  cpu time      0.0270: real time      0.0460
    SETDIJ:  cpu time      0.0090: real time      0.0093
     EDDAV:  cpu time      5.8129: real time      5.8541
 BZINTS: Fermi energy:   23.697902;  156.000000 electrons
         Band energy: 0.584670E+03;  BLOECHL correction:   -0.060029
       DOS:  cpu time      0.1278: real time      0.1290
    --------------------------------------------
      LOOP:  cpu time      5.9769: real time      6.0386

 eigenvalue-minimisations  : 43072
 total energy-change (2. order) : 0.1768494E+04  (-0.8408975E+04)
 number of electron     156.0000000 magnetization      24.9060000
 augmentation part      156.0000000 magnetization      24.9060000

 Free energy of the ion-electron system (eV)
  ---------------------------------------------------
  alpha Z        PSCENC =      1127.08695075
  Ewald energy   TEWEN  =    -18289.84068053
  -Hartree energ DENC   =     -5892.15726463
  -exchange      EXHF   =         0.00000000
  -V(xc)+E(xc)   XCENC  =       658.57050392
  PAW double counting   =     20094.08386982   -20818.02224142
  entropy T*S    EENTRO =         0.00000000
  eigenvalues    EBANDS =       584.67027670
  atomic energy  EATOM  =     24304.10294433
  Solvation  Ediel_sol  =         0.00000000
  ---------------------------------------------------
  free energy    TOTEN  =      1768.49435893 eV

  energy without entropy =     1768.49435893  energy(sigma->0) =     1768.49435893


--------------------------------------------------------------------------------------------------------




--------------------------------------- Iteration      1(   2)  ---------------------------------------


     EDDAV:  cpu time      5.8138: real time      5.8553
 BZINTS: Fermi energy:   12.609346;  156.000000 electrons
         Band energy:-0.117740E+04;  BLOECHL correction:   -0.035326
       DOS:  cpu time      0.1302: real time      0.1312
    --------------------------------------------
      LOOP:  cpu time      5.9439: real time      5.9864

 eigenvalue-minimisations  : 43008
 total energy-change (2. order) :-0.1762070E+04  (-0.1669665E+04)
 number of electron     156.0000000 magnetization      24.9060000
 augmentation part      156.0000000 magnetization      24.9060000

 Free energy of the ion-electron system (eV)
  ---------------------------------------------------
  alpha Z        PSCENC =      1127.08695075
  Ewald energy   TEWEN  =    -18289.84068053
  -Hartree energ DENC   =     -5892.15726463
  -exchange      EXHF   =         0.00000000
  -V(xc)+E(xc)   XCENC  =       658.57050392
  PAW double counting   =     20094.08386982   -20818.02224142
  entropy T*S    EENTRO =         0.00000000
  eigenvalues    EBANDS =     -1177.40001269
  atomic energy  EATOM  =     24304.10294433
  Solvation  Ediel_sol  =         0.00000000
  ---------------------------------------------------
  free energy    TOTEN  =         6.42406954 eV

  energy without entropy =        6.42406954  energy(sigma->0) =        6.42406954


--------------------------------------------------------------------------------------------------------




--------------------------------------- Iteration      1(   3)  ---------------------------------------


     EDDAV:  cpu time      7.1228: real time      7.1680
 BZINTS: Fermi energy:   11.997727;  156.000000 electrons
         Band energy:-0.128642E+04;  BLOECHL correction:   -0.062830
       DOS:  cpu time      0.1288: real time      0.1298
    --------------------------------------------
      LOOP:  cpu time      7.2516: real time      7.2977

 eigenvalue-minimisations  : 50496
 total energy-change (2. order) :-0.1090230E+03  (-0.1074107E+03)
 number of electron     156.0000000 magnetization      24.9060000
 augmentation part      156.0000000 magnetization      24.9060000

 Free energy of the ion-electron system (eV)
  ---------------------------------------------------
  alpha Z        PSCENC =      1127.08695075
  Ewald energy   TEWEN  =    -18289.84068053
  -Hartree energ DENC   =     -5892.15726463
  -exchange      EXHF   =         0.00000000
  -V(xc)+E(xc)   XCENC  =       658.57050392
  PAW double counting   =     20094.08386982   -20818.02224142
  entropy T*S    EENTRO =         0.00000000
  eigenvalues    EBANDS =     -1286.42302113
  atomic energy  EATOM  =     24304.10294433
  Solvation  Ediel_sol  =         0.00000000
  ---------------------------------------------------
  free energy    TOTEN  =      -102.59893890 eV

  energy without entropy =     -102.59893890  energy(sigma->0) =     -102.59893890


--------------------------------------------------------------------------------------------------------




--------------------------------------- Iteration      1(   4)  ---------------------------------------


     EDDAV:  cpu time      6.2019: real time      6.2435
 BZINTS: Fermi energy:   11.992999;  156.000000 electrons
         Band energy:-0.128798E+04;  BLOECHL correction:   -0.063088
       DOS:  cpu time      0.1299: real time      0.1308
    --------------------------------------------
      LOOP:  cpu time      6.3318: real time      6.3743

 eigenvalue-minimisations  : 45952
 total energy-change (2. order) :-0.1559134E+01  (-0.1558606E+01)
 number of electron     156.0000000 magnetization      24.9060000
 augmentation part      156.0000000 magnetization      24.9060000

 Free energy of the ion-electron system (eV)
  ---------------------------------------------------
  alpha Z        PSCENC =      1127.08695075
  Ewald energy   TEWEN  =    -18289.84068053
  -Hartree energ DENC   =     -5892.15726463
  -exchange      EXHF   =         0.00000000
  -V(xc)+E(xc)   XCENC  =       658.57050392
  PAW double counting   =     20094.08386982   -20818.02224142
  entropy T*S    EENTRO =         0.00000000
  eigenvalues    EBANDS =     -1287.98215542
  atomic energy  EATOM  =     24304.10294433
  Solvation  Ediel_sol  =         0.00000000
  ---------------------------------------------------
  free energy    TOTEN  =      -104.15807319 eV

  energy without entropy =     -104.15807319  energy(sigma->0) =     -104.15807319


--------------------------------------------------------------------------------------------------------




--------------------------------------- Iteration      1(   5)  ---------------------------------------


     EDDAV:  cpu time      7.3329: real time      7.3788
 BZINTS: Fermi energy:   11.992956;  156.000000 electrons
         Band energy:-0.128801E+04;  BLOECHL correction:   -0.063089
       DOS:  cpu time      0.1293: real time      0.1303
    CHARGE:  cpu time      0.1544: real time      0.1555
    MIXING:  cpu time      0.0055: real time      0.0055
    --------------------------------------------
      LOOP:  cpu time      7.6221: real time      7.6701

 eigenvalue-minimisations  : 52736
 total energy-change (2. order) :-0.2916643E-01  (-0.2916497E-01)
 number of electron     156.0000236 magnetization      23.1993780
 augmentation part       79.3952328 magnetization      17.3384671

 Broyden mixing:
  rms(total) = 0.39909E+01    rms(broyden)= 0.39901E+01
  rms(prec ) = 0.44409E+01
  weight for this iteration     100.00

 Free energy of the ion-electron system (eV)
  ---------------------------------------------------
  alpha Z        PSCENC =      1127.08695075
  Ewald energy   TEWEN  =    -18289.84068053
  -Hartree energ DENC   =     -5892.15726463
  -exchange      EXHF   =         0.00000000
  -V(xc)+E(xc)   XCENC  =       658.57050392
  PAW double counting   =     20094.08386982   -20818.02224142
  entropy T*S    EENTRO =         0.00000000
  eigenvalues    EBANDS =     -1288.01132185
  atomic energy  EATOM  =     24304.10294433
  Solvation  Ediel_sol  =         0.00000000
  ---------------------------------------------------
  free energy    TOTEN  =      -104.18723962 eV

  energy without entropy =     -104.18723962  energy(sigma->0) =     -104.18723962


--------------------------------------------------------------------------------------------------------




--------------------------------------- Iteration      1(   6)  ---------------------------------------


    POTLOK:  cpu time      0.0431: real time      0.0439
    SETDIJ:  cpu time      0.0083: real time      0.0083
     EDDAV:  cpu time      6.5427: real time      6.5825
 BZINTS: Fermi energy:    9.400162;  156.000000 electrons
         Band energy:-0.169201E+04;  BLOECHL correction:   -0.073725
       DOS:  cpu time      0.1414: real time      0.1424
    CHARGE:  cpu time      0.1479: real time      0.1488
    MIXING:  cpu time      0.0029: real time      0.0030
    --------------------------------------------
      LOOP:  cpu time      6.8863: real time      6.9288

 eigenvalue-minimisations  : 48352
 total energy-change (2. order) : 0.4107540E+01  (-0.6183467E+01)
 number of electron     156.0000261 magnetization      22.5375772
 augmentation part       87.8073615 magnetization      17.3405526

 Broyden mixing:
  rms(total) = 0.33485E+01    rms(broyden)= 0.33480E+01
  rms(prec ) = 0.40859E+01
  weight for this iteration     100.00

 eigenvalues of (default mixing * dielectric matrix)
  average eigenvalue GAMMA=   0.4804
  0.4804

 Free energy of the ion-electron system (eV)
  ---------------------------------------------------
  alpha Z        PSCENC =      1127.08695075
  Ewald energy   TEWEN  =    -18289.84068053
  -Hartree energ DENC   =     -5488.18909858
  -exchange      EXHF   =         0.00000000
  -V(xc)+E(xc)   XCENC  =       640.94384583
  PAW double counting   =     20567.84679525   -21270.02234420
  entropy T*S    EENTRO =         0.00000000
  eigenvalues    EBANDS =     -1692.00811276
  atomic energy  EATOM  =     24304.10294433
  Solvation  Ediel_sol  =         0.00000000
  ---------------------------------------------------
  free energy    TOTEN  =      -100.07969991 eV

  energy without entropy =     -100.07969991  energy(sigma->0) =     -100.07969991


--------------------------------------------------------------------------------------------------------




--------------------------------------- Iteration      1(   7)  ---------------------------------------


    POTLOK:  cpu time      0.0431: real time      0.0440
    SETDIJ:  cpu time      0.0083: real time      0.0084
     EDDAV:  cpu time      6.8566: real time      6.8956
 BZINTS: Fermi energy:   10.597002;  156.000000 electrons
         Band energy:-0.150364E+04;  BLOECHL correction:   -0.048705
       DOS:  cpu time      0.1421: real time      0.1430
    CHARGE:  cpu time      0.1476: real time      0.1484
    MIXING:  cpu time      0.0025: real time      0.0026
    --------------------------------------------
      LOOP:  cpu time      7.2002: real time      7.2420

 eigenvalue-minimisations  : 49760
 total energy-change (2. order) : 0.4024582E+01  (-0.8278263E+01)
 number of electron     156.0000243 magnetization      22.2290082
 augmentation part       83.4391379 magnetization      16.1658456

 Broyden mixing:
  rms(total) = 0.21598E+01    rms(broyden)= 0.21595E+01
  rms(prec ) = 0.24798E+01
  weight for this iteration     100.00

 eigenvalues of (default mixing * dielectric matrix)
  average eigenvalue GAMMA=   0.6723
  1.0138  0.3307

 Free energy of the ion-electron system (eV)
  ---------------------------------------------------
  alpha Z        PSCENC =      1127.08695075
  Ewald energy   TEWEN  =    -18289.84068053
  -Hartree energ DENC   =     -5644.60710887
  -exchange      EXHF   =         0.00000000
  -V(xc)+E(xc)   XCENC  =       646.45481811
  PAW double counting   =     21219.70969037   -21955.32533937
  entropy T*S    EENTRO =         0.00000000
  eigenvalues    EBANDS =     -1503.63639251
  atomic energy  EATOM  =     24304.10294433
  Solvation  Ediel_sol  =         0.00000000
  ---------------------------------------------------
  free energy    TOTEN  =       -96.05511772 eV

  energy without entropy =      -96.05511772  energy(sigma->0) =      -96.05511772


--------------------------------------------------------------------------------------------------------




--------------------------------------- Iteration      1(   8)  ---------------------------------------


    POTLOK:  cpu time      0.0429: real time      0.0438
    SETDIJ:  cpu time      0.0081: real time      0.0082
     EDDAV:  cpu time      6.5413: real time      6.5840
 BZINTS: Fermi energy:   10.182787;  156.000000 electrons
         Band energy:-0.154973E+04;  BLOECHL correction:   -0.051795
       DOS:  cpu time      0.1393: real time      0.1401
    CHARGE:  cpu time      0.1482: real time      0.1490
    MIXING:  cpu time      0.0018: real time      0.0018
    --------------------------------------------
      LOOP:  cpu time      6.8817: real time      6.9270

 eigenvalue-minimisations  : 48512
 total energy-change (2. order) : 0.2232675E+01  (-0.4356175E+00)
 number of electron     156.0000246 magnetization      22.6026506
 augmentation part       84.6477247 magnetization      16.6355011

 Broyden mixing:
  rms(total) = 0.10720E+01    rms(broyden)= 0.10718E+01
  rms(prec ) = 0.13197E+01
  weight for this iteration     100.00

 eigenvalues of (default mixing * dielectric matrix)
  average eigenvalue GAMMA=   0.7135
  0.3625  0.9999  0.7780

 Free energy of the ion-electron system (eV)
  ---------------------------------------------------
  alpha Z        PSCENC =      1127.08695075
  Ewald energy   TEWEN  =    -18289.84068053
  -Hartree energ DENC   =     -5586.69099858
  -exchange      EXHF   =         0.00000000
  -V(xc)+E(xc)   XCENC  =       645.58511250
  PAW double counting   =     21678.07416744   -22422.41476689
  entropy T*S    EENTRO =         0.00000000
  eigenvalues    EBANDS =     -1549.72517213
  atomic energy  EATOM  =     24304.10294433
  Solvation  Ediel_sol  =         0.00000000
  ---------------------------------------------------
  free energy    TOTEN  =       -93.82244310 eV

  energy without entropy =      -93.82244310  energy(sigma->0) =      -93.82244310


--------------------------------------------------------------------------------------------------------




--------------------------------------- Iteration      1(   9)  ---------------------------------------


    POTLOK:  cpu time      0.0432: real time      0.0442
    SETDIJ:  cpu time      0.0078: real time      0.0078
     EDDAV:  cpu time      7.3509: real time      7.3955
 BZINTS: Fermi energy:   10.199212;  156.000000 electrons
         Band energy:-0.156109E+04;  BLOECHL correction:   -0.036179
       DOS:  cpu time      0.1425: real time      0.1434
    CHARGE:  cpu time      0.1452: real time      0.1460
    MIXING:  cpu time      0.0018: real time      0.0018
    --------------------------------------------
      LOOP:  cpu time      7.6915: real time      7.7387

 eigenvalue-minimisations  : 52384
 total energy-change (2. order) :-0.1523539E+01  (-0.1635425E+01)
 number of electron     156.0000249 magnetization      23.0163447
 augmentation part       84.8980125 magnetization      17.2555396

 Broyden mixing:
  rms(total) = 0.22174E+01    rms(broyden)= 0.22172E+01
  rms(prec ) = 0.31223E+01
  weight for this iteration     100.00

 eigenvalues of (default mixing * dielectric matrix)
  average eigenvalue GAMMA=   0.6662
  1.1782  1.0006  0.3521  0.1339

 Free energy of the ion-electron system (eV)
  ---------------------------------------------------
  alpha Z        PSCENC =      1127.08695075
  Ewald energy   TEWEN  =    -18289.84068053
  -Hartree energ DENC   =     -5573.16925494
  -exchange      EXHF   =         0.00000000
  -V(xc)+E(xc)   XCENC  =       645.98626802
  PAW double counting   =     21856.13857669   -22604.56384714
  entropy T*S    EENTRO =         0.00000000
  eigenvalues    EBANDS =     -1561.08693885
  atomic energy  EATOM  =     24304.10294433
  Solvation  Ediel_sol  =         0.00000000
  ---------------------------------------------------
  free energy    TOTEN  =       -95.34598168 eV

  energy without entropy =      -95.34598168  energy(sigma->0) =      -95.34598168


--------------------------------------------------------------------------------------------------------




--------------------------------------- Iteration      1(  10)  ---------------------------------------


    POTLOK:  cpu time      0.0397: real time      0.0453
    SETDIJ:  cpu time      0.0081: real time      0.0081
     EDDAV:  cpu time      7.2022: real time      7.2473
 BZINTS: Fermi energy:   10.121850;  156.000000 electrons
         Band energy:-0.156654E+04;  BLOECHL correction:   -0.059865
       DOS:  cpu time      0.1415: real time      0.1424
    CHARGE:  cpu time      0.1443: real time      0.1454
    MIXING:  cpu time      0.0018: real time      0.0018
    --------------------------------------------
      LOOP:  cpu time      7.5376: real time      7.5902

 eigenvalue-minimisations  : 51744
 total energy-change (2. order) : 0.1919607E+01  (-0.5411277E+00)
 number of electron     156.0000248 magnetization      23.3560013
 augmentation part       85.0143883 magnetization      17.7875743

 Broyden mixing:
  rms(total) = 0.62945E+00    rms(broyden)= 0.62905E+00
  rms(prec ) = 0.76643E+00
  weight for this iteration     100.00

 eigenvalues of (default mixing * dielectric matrix)
  average eigenvalue GAMMA=   0.7276
  1.6796  0.9087  0.5366  0.3805  0.1325

 Free energy of the ion-electron system (eV)
  ---------------------------------------------------
  alpha Z        PSCENC =      1127.08695075
  Ewald energy   TEWEN  =    -18289.84068053
  -Hartree energ DENC   =     -5561.24822019
  -exchange      EXHF   =         0.00000000
  -V(xc)+E(xc)   XCENC  =       646.43069386
  PAW double counting   =     22063.68844123   -22817.10641239
  entropy T*S    EENTRO =         0.00000000
  eigenvalues    EBANDS =     -1566.54009198
  atomic energy  EATOM  =     24304.10294433
  Solvation  Ediel_sol  =         0.00000000
  ---------------------------------------------------
  free energy    TOTEN  =       -93.42637493 eV

  energy without entropy =      -93.42637493  energy(sigma->0) =      -93.42637493


--------------------------------------------------------------------------------------------------------




--------------------------------------- Iteration      1(  11)  ---------------------------------------


    POTLOK:  cpu time      0.0432: real time      0.0442
    SETDIJ:  cpu time      0.0085: real time      0.0085
     EDDAV:  cpu time      7.3275: real time      7.3720
 BZINTS: Fermi energy:   10.161710;  156.000000 electrons
         Band energy:-0.156581E+04;  BLOECHL correction:   -0.047308
       DOS:  cpu time      0.1403: real time      0.1412
    CHARGE:  cpu time      0.1462: real time      0.1469
    MIXING:  cpu time      0.0019: real time      0.0019
    --------------------------------------------
      LOOP:  cpu time      7.6676: real time      7.7148

 eigenvalue-minimisations  : 52448
 total energy-change (2. order) :-0.5768948E+00  (-0.4108159E+00)
 number of electron     156.0000248 magnetization      23.5940445
 augmentation part       84.9794158 magnetization      18.0184481

 Broyden mixing:
  rms(total) = 0.12598E+01    rms(broyden)= 0.12597E+01
  rms(prec ) = 0.18145E+01
  weight for this iteration     100.00

 eigenvalues of (default mixing * dielectric matrix)
  average eigenvalue GAMMA=   0.6619
  1.8347  0.7429  0.7429  0.3729  0.1389  0.1389

 Free energy of the ion-electron system (eV)
  ---------------------------------------------------
  alpha Z        PSCENC =      1127.08695075
  Ewald energy   TEWEN  =    -18289.84068053
  -Hartree energ DENC   =     -5558.79711340
  -exchange      EXHF   =         0.00000000
  -V(xc)+E(xc)   XCENC  =       646.54275782
  PAW double counting   =     22206.04867278   -22963.33844568
  entropy T*S    EENTRO =         0.00000000
  eigenvalues    EBANDS =     -1565.80835577
  atomic energy  EATOM  =     24304.10294433
  Solvation  Ediel_sol  =         0.00000000
  ---------------------------------------------------
  free energy    TOTEN  =       -94.00326970 eV

  energy without entropy =      -94.00326970  energy(sigma->0) =      -94.00326970


--------------------------------------------------------------------------------------------------------




--------------------------------------- Iteration      1(  12)  ---------------------------------------


    POTLOK:  cpu time      0.0432: real time      0.0442
    SETDIJ:  cpu time      0.0081: real time      0.0082
     EDDAV:  cpu time      7.2697: real time      7.3157
 BZINTS: Fermi energy:   10.142071;  156.000000 electrons
         Band energy:-0.156378E+04;  BLOECHL correction:   -0.060237
       DOS:  cpu time      0.1407: real time      0.1416
    CHARGE:  cpu time      0.1486: real time      0.1493
    MIXING:  cpu time      0.0018: real time      0.0019
    --------------------------------------------
      LOOP:  cpu time      7.6122: real time      7.6610

 eigenvalue-minimisations  : 52608
 total energy-change (2. order) : 0.6097201E+00  (-0.3034923E+00)
 number of electron     156.0000248 magnetization      24.0821249
 augmentation part       84.9426464 magnetization      18.4233762

 Broyden mixing:
  rms(total) = 0.31853E+00    rms(broyden)= 0.31835E+00
  rms(prec ) = 0.39357E+00
  weight for this iteration     100.00

 eigenvalues of (default mixing * dielectric matrix)
  average eigenvalue GAMMA=   0.7654
  2.2178  0.9291  0.9291  0.6381  0.3709  0.1506  0.1221

 Free energy of the ion-electron system (eV)
  ---------------------------------------------------
  alpha Z        PSCENC =      1127.08695075
  Ewald energy   TEWEN  =    -18289.84068053
  -Hartree energ DENC   =     -5557.44166004
  -exchange      EXHF   =         0.00000000
  -V(xc)+E(xc)   XCENC  =       646.49323954
  PAW double counting   =     22307.14113773   -23067.15164231
  entropy T*S    EENTRO =         0.00000000
  eigenvalues    EBANDS =     -1563.78383904
  atomic energy  EATOM  =     24304.10294433
  Solvation  Ediel_sol  =         0.00000000
  ---------------------------------------------------
  free energy    TOTEN  =       -93.39354957 eV

  energy without entropy =      -93.39354957  energy(sigma->0) =      -93.39354957


--------------------------------------------------------------------------------------------------------




--------------------------------------- Iteration      1(  13)  ---------------------------------------


    POTLOK:  cpu time      0.0430: real time      0.0440
    SETDIJ:  cpu time      0.0080: real time      0.0081
     EDDAV:  cpu time      6.8672: real time      6.9109
 BZINTS: Fermi energy:   10.140186;  156.000000 electrons
         Band energy:-0.156470E+04;  BLOECHL correction:   -0.059098
       DOS:  cpu time      0.1399: real time      0.1409
    CHARGE:  cpu time      0.1439: real time      0.1446
    MIXING:  cpu time      0.0020: real time      0.0020
    --------------------------------------------
      LOOP:  cpu time      7.2039: real time      7.2505

 eigenvalue-minimisations  : 50208
 total energy-change (2. order) :-0.1521307E+00  (-0.4963428E-01)
 number of electron     156.0000248 magnetization      24.2713352
 augmentation part       84.9444499 magnetization      18.5250983

 Broyden mixing:
  rms(total) = 0.59142E+00    rms(broyden)= 0.59137E+00
  rms(prec ) = 0.73444E+00
  weight for this iteration     100.00

 eigenvalues of (default mixing * dielectric matrix)
  average eigenvalue GAMMA=   0.7232
  2.3309  0.9993  0.9993  0.6379  0.3711  0.1207  0.1527  0.1737

 Free energy of the ion-electron system (eV)
  ---------------------------------------------------
  alpha Z        PSCENC =      1127.08695075
  Ewald energy   TEWEN  =    -18289.84068053
  -Hartree energ DENC   =     -5553.59267373
  -exchange      EXHF   =         0.00000000
  -V(xc)+E(xc)   XCENC  =       646.33158902
  PAW double counting   =     22442.70854267   -23205.64515690
  entropy T*S    EENTRO =         0.00000000
  eigenvalues    EBANDS =     -1564.69719592
  atomic energy  EATOM  =     24304.10294433
  Solvation  Ediel_sol  =         0.00000000
  ---------------------------------------------------
  free energy    TOTEN  =       -93.54568030 eV

  energy without entropy =      -93.54568030  energy(sigma->0) =      -93.54568030


--------------------------------------------------------------------------------------------------------




--------------------------------------- Iteration      1(  14)  ---------------------------------------


    POTLOK:  cpu time      0.0434: real time      0.0444
    SETDIJ:  cpu time      0.0077: real time      0.0077
     EDDAV:  cpu time      6.7843: real time      6.8289
[...]
    113      25.2812      0.00000
    114      25.7447      0.00000
    115      25.7457      0.00000
    116      26.1036      0.00000
    117      26.1050      0.00000
    118      26.9987      0.00000
    119      27.0004      0.00000
    120      27.8613      0.00000
    121      27.8656      0.00000
    122      27.9148      0.00000
    123      28.3407      0.00000
    124      29.4521      0.00000
    125      29.4522      0.00000
    126      29.8660      0.00000
    127      29.8660      0.00000
    128      30.5655      0.00000


--------------------------------------------------------------------------------------------------------


 soft charge-density along one line, spin component           1
         0         1         2         3         4         5         6         7         8         9
 total charge-density along one line
 
 soft charge-density along one line, spin component           2
         0         1         2         3         4         5         6         7         8         9
 total charge-density along one line
 
 pseudopotential strength for first ion, spin component:           1
-44.770   0.000   0.000   7.532  -0.000  -0.000  -0.000   0.000
  0.000 -44.767   0.000  -0.000   7.531  -0.000  -0.000   0.000
  0.000   0.000 -44.665  -0.000  -0.000   7.489   0.000  -0.000
  7.532  -0.000  -0.000   5.652  -0.000  -0.000   0.000  -0.000
 -0.000   7.531  -0.000  -0.000   5.653  -0.000   0.000  -0.000
 -0.000  -0.000   7.489  -0.000  -0.000   5.660  -0.000   0.000
 -0.000  -0.000   0.000   0.000   0.000  -0.000  -1.882   0.000
  0.000   0.000  -0.000  -0.000  -0.000   0.000   0.000  -1.961
 -0.000   0.000   0.000   0.000  -0.000  -0.000  -0.000  -0.000
 -0.000  -0.000   0.000   0.000   0.000  -0.000   0.000   0.000
 -0.000  -0.000  -0.000   0.000   0.000   0.000   0.000  -0.000
 -0.000  -0.000   0.000   0.000   0.000  -0.000  -2.399   0.000
  0.000   0.000  -0.000  -0.000  -0.000   0.000   0.000  -2.477
 -0.000   0.000   0.000   0.000  -0.000  -0.000  -0.000  -0.000
 -0.000   0.000   0.000   0.000   0.000  -0.000   0.000   0.000
 -0.000  -0.000  -0.000   0.000   0.000   0.000   0.000  -0.000
 -0.000  -0.000   0.000  -0.000   0.000   0.000  -0.000  -0.000
 -0.000  -0.000   0.000  -0.000   0.000   0.000  -0.000  -0.000
 pseudopotential strength for first ion, spin component:           2
-42.458   0.000   0.000   6.558  -0.000  -0.000   0.000   0.000
  0.000 -42.456   0.000  -0.000   6.557  -0.000   0.000   0.000
  0.000   0.000 -42.408  -0.000  -0.000   6.537   0.000   0.000
  6.558  -0.000  -0.000   5.924  -0.000  -0.000  -0.000  -0.000
 -0.000   6.557  -0.000  -0.000   5.924  -0.000  -0.000  -0.000
 -0.000  -0.000   6.537  -0.000  -0.000   5.928  -0.000  -0.000
  0.000   0.000   0.000  -0.000  -0.000  -0.000  -0.053   0.000
  0.000   0.000   0.000  -0.000  -0.000  -0.000   0.000  -0.077
 -0.000   0.000  -0.000   0.000  -0.000   0.000  -0.000  -0.000
  0.000   0.000   0.000  -0.000  -0.000  -0.000   0.000   0.000
 -0.000  -0.000  -0.000   0.000   0.000  -0.000   0.000  -0.000
 -0.000   0.000   0.000   0.000  -0.000  -0.000  -0.599   0.000
  0.000   0.000   0.000  -0.000  -0.000  -0.000   0.000  -0.624
 -0.000   0.000   0.000   0.000  -0.000  -0.000  -0.000  -0.000
  0.000   0.000   0.000  -0.000   0.000  -0.000   0.000   0.000
 -0.000  -0.000  -0.000   0.000   0.000   0.000   0.000  -0.000
 -0.000  -0.000  -0.000  -0.000  -0.000   0.000  -0.000  -0.000
 -0.000  -0.000  -0.000  -0.000   0.000  -0.000  -0.000  -0.000
 total augmentation occupancy for first ion, spin component:           1
  1.992   0.000   0.000  -0.025   0.000   0.000   0.000   0.000   0.000   0.000   0.000   0.000  -0.000   0.000   0.000   0.000
  0.000   1.992   0.000  -0.000  -0.025   0.000   0.000  -0.000   0.000   0.000  -0.000   0.000   0.000  -0.000   0.000   0.000
  0.000   0.000   1.992  -0.000   0.000  -0.025   0.000   0.000   0.000   0.000   0.000   0.000   0.000  -0.000  -0.000   0.000
 -0.025  -0.000  -0.000   0.191  -0.000  -0.000  -0.000   0.000   0.000   0.000   0.000   0.000  -0.001   0.000   0.000   0.000
  0.000  -0.025   0.000  -0.000   0.191   0.000  -0.000   0.000   0.000   0.000  -0.000   0.000   0.000  -0.000  -0.000   0.000
  0.000   0.000  -0.025  -0.000   0.000   0.170   0.000  -0.000   0.000   0.000   0.000  -0.000   0.000  -0.000  -0.000   0.000
  0.000   0.000   0.000  -0.000  -0.000   0.000   3.026   0.000  -0.000   0.000   0.000  -1.764   0.000   0.000   0.000   0.000
  0.000  -0.000   0.000   0.000   0.000  -0.000   0.000   3.386   0.000  -0.000   0.000   0.000  -2.369   0.000   0.000  -0.000
  0.000   0.000   0.000   0.000   0.000   0.000  -0.000   0.000   3.463  -0.000   0.168   0.000   0.000  -2.084   0.000  -0.090
  0.000   0.000   0.000   0.000   0.000   0.000   0.000  -0.000  -0.000   3.033  -0.000   0.000   0.000   0.000  -1.768  -0.000
  0.000  -0.000   0.000   0.000  -0.000   0.000   0.000   0.000   0.168  -0.000   3.272  -0.000   0.000  -0.090  -0.000  -1.983
  0.000   0.000   0.000   0.000   0.000  -0.000  -1.764   0.000   0.000   0.000  -0.000   1.910   0.000   0.000   0.000  -0.000
 -0.000   0.000   0.000  -0.001   0.000   0.000   0.000  -2.369   0.000   0.000   0.000   0.000   2.662  -0.000   0.000   0.000
  0.000  -0.000  -0.000   0.000  -0.000  -0.000   0.000   0.000  -2.084   0.000  -0.090   0.000  -0.000   1.975   0.000   0.016
  0.000   0.000  -0.000   0.000  -0.000  -0.000   0.000   0.000   0.000  -1.768  -0.000   0.000   0.000   0.000   1.913  -0.000
  0.000   0.000   0.000   0.000   0.000   0.000   0.000  -0.000  -0.090  -0.000  -1.983  -0.000   0.000   0.016  -0.000   1.956
  0.000  -0.000   0.000  -0.000  -0.000   0.000   0.000   0.000  -0.110   0.000   0.191  -0.000   0.000   0.082   0.000  -0.143
 -0.000  -0.000   0.000   0.000   0.000  -0.000  -0.000  -0.000   0.007  -0.000  -0.012   0.000   0.000  -0.005  -0.000   0.008
 total augmentation occupancy for first ion, spin component:           2
 -0.002   0.000   0.000  -0.009   0.000   0.000   0.000  -0.000  -0.000   0.000   0.000   0.000   0.000  -0.000   0.000   0.000
  0.000  -0.002   0.000   0.000  -0.009   0.000   0.000   0.000  -0.000   0.000  -0.000   0.000   0.000   0.000   0.000   0.000
  0.000   0.000  -0.002   0.000   0.000  -0.010   0.000  -0.000   0.000  -0.000   0.000   0.000   0.000  -0.000   0.000   0.000
 -0.009   0.000   0.000  -0.005   0.000  -0.000   0.000   0.000  -0.000   0.000  -0.000   0.000  -0.000   0.000   0.000   0.000
  0.000  -0.009   0.000   0.000  -0.005   0.000  -0.000   0.000  -0.000  -0.000  -0.000   0.000   0.000   0.000   0.000   0.000
  0.000   0.000  -0.010  -0.000   0.000  -0.011  -0.000  -0.000   0.000   0.000   0.000   0.000  -0.000  -0.000  -0.000  -0.000
  0.000   0.000   0.000   0.000  -0.000  -0.000   2.410   0.000  -0.000  -0.000  -0.000  -1.055   0.000   0.000  -0.000   0.000
 -0.000   0.000  -0.000   0.000   0.000  -0.000   0.000   2.394   0.000  -0.000   0.000   0.000  -0.960   0.000  -0.000  -0.000
 -0.000  -0.000   0.000  -0.000  -0.000   0.000  -0.000   0.000   2.732   0.000   0.091  -0.000   0.000  -1.156   0.000  -0.092
  0.000   0.000  -0.000   0.000  -0.000   0.000  -0.000  -0.000   0.000   2.414   0.000   0.000   0.000  -0.000  -1.059   0.000
  0.000  -0.000   0.000  -0.000  -0.000   0.000  -0.000   0.000   0.091   0.000   2.631   0.000   0.000  -0.092   0.000  -1.052
  0.000   0.000   0.000   0.000   0.000   0.000  -1.055   0.000  -0.000   0.000   0.000   0.254   0.000   0.000   0.000  -0.000
  0.000   0.000   0.000  -0.000   0.000  -0.000   0.000  -0.960   0.000   0.000   0.000   0.000   0.124   0.000   0.000   0.000
 -0.000   0.000  -0.000   0.000   0.000  -0.000   0.000   0.000  -1.156  -0.000  -0.092   0.000   0.000   0.343   0.000   0.106
  0.000   0.000   0.000   0.000   0.000  -0.000  -0.000  -0.000   0.000  -1.059   0.000   0.000   0.000   0.000   0.256   0.000
  0.000   0.000   0.000   0.000   0.000  -0.000   0.000  -0.000  -0.092   0.000  -1.052  -0.000   0.000   0.106   0.000   0.222
  0.000   0.000   0.000  -0.000   0.000   0.000   0.000  -0.000  -0.031  -0.000   0.055   0.000   0.000   0.031   0.000  -0.055
 -0.000  -0.000   0.000   0.000  -0.000   0.000  -0.000  -0.000   0.002  -0.000  -0.004   0.000   0.000  -0.000  -0.000   0.001


------------------------ aborting loop because EDIFF is reached ----------------------------------------





 total charge

# of ion       s       p       d       tot
------------------------------------------
    1        0.356   6.344   6.045  12.745
    2        0.356   6.344   6.045  12.745
    3        0.356   6.344   6.045  12.745
    4        0.356   6.344   6.044  12.745
    5        0.356   6.344   6.044  12.744
    6        0.356   6.344   6.044  12.744
    7        0.356   6.344   6.045  12.745
    8        0.356   6.344   6.045  12.745
    9        0.356   6.344   6.045  12.745
   10        0.779   0.737   8.058   9.574
   11        0.778   0.737   8.058   9.574
   12        0.778   0.737   8.058   9.574
--------------------------------------------------
tot          5.542  59.309  78.576 143.426



 magnetization (x)

# of ion       s       p       d       tot
------------------------------------------
    1       -0.003  -0.016   2.692   2.673
    2       -0.003  -0.016   2.693   2.674
    3       -0.003  -0.016   2.692   2.673
    4       -0.003  -0.016   2.694   2.675
    5       -0.003  -0.016   2.701   2.682
    6       -0.003  -0.016   2.701   2.682
    7       -0.003  -0.016   2.692   2.673
    8       -0.003  -0.016   2.693   2.674
    9       -0.003  -0.016   2.692   2.673
   10       -0.041  -0.100   0.449   0.308
   11       -0.041  -0.100   0.451   0.310
   12       -0.041  -0.100   0.451   0.310
--------------------------------------------------
tot         -0.146  -0.447  25.601  25.008
 
    CHARGE:  cpu time      0.1443: real time      0.1451
    FORLOC:  cpu time      0.0017: real time      0.0017
    FORNL :  cpu time      0.7040: real time      0.7085
    STRESS:  cpu time      4.2030: real time      4.2373
    FORCOR:  cpu time      0.0207: real time      0.0208
    FORHAR:  cpu time      0.0033: real time      0.0034
    MIXING:  cpu time      0.0024: real time      0.0024
    OFIELD:  cpu time      0.0015: real time      0.0015

  FORCE on cell =-STRESS in cart. coord.  units (eV):
  Direction    XX          YY          ZZ          XY          YZ          ZX
  --------------------------------------------------------------------------------------
  Alpha Z  1127.08695  1127.08695  1127.08695
  Ewald   -6096.28115 -6096.28115 -6097.29732    -0.00000     0.00000     0.00000
  Hartree  1850.89600  1850.89600  1850.41405    -0.00000    -0.00000    -0.00000
  E(xc)    -945.77818  -945.77818  -945.77525     0.00000    -0.00000    -0.00000
  Local    1143.19862  1143.19862  1144.57326     0.00000     0.00000    -0.00000
  n-local  -207.37015  -221.59578  -214.48689    15.61439    -0.05730    -0.07966
  augment  1437.93840  1437.93840  1437.97251     0.00000     0.00000     0.00000
  Kinetic  1707.14600  1700.42208  1703.78590     1.29622     0.28166     0.68055
  Fock        0.00000     0.00000     0.00000     0.00000     0.00000     0.00000
  -------------------------------------------------------------------------------------
  Total       6.36172     6.36172     6.27320     0.00000     0.00000     0.00000
  in kB      67.50074    67.50074    66.56144     0.00000     0.00000     0.00000
  external pressure =       67.19 kB  Pullay stress =        0.00 kB


 VOLUME and BASIS-vectors are now :
 -----------------------------------------------------------------------------
  energy-cutoff  :      520.00
  volume of cell :      151.00
      direct lattice vectors                 reciprocal lattice vectors
     3.691079375  0.000000000  0.000000000     0.270923461  0.000000000  0.000000000
     0.000000000  3.691079375  0.000000000     0.000000000  0.270923461  0.000000000
     0.000000000  0.000000000 11.083327802     0.000000000  0.000000000  0.090225609

  length of vectors
     3.691079375  3.691079375 11.083327802     0.270923461  0.270923461  0.090225609


 FORCES acting on ions
    electron-ion (+dipol)            ewald-force                    non-local-force                 convergence-correction
 -----------------------------------------------------------------------------------------------
   -.797E-13 0.103E-11 -.147E+01   0.305E-13 0.231E-13 0.148E+01   0.310E-20 0.106E-20 0.789E-03   0.516E-13 0.423E-13 -.814E-02
   -.796E-13 0.110E-11 0.322E-11   0.414E-13 0.114E-13 0.568E-13   0.864E-24 -.506E-24 0.674E-24   0.563E-13 0.206E-13 -.180E-11
   -.795E-13 0.803E-12 0.147E+01   0.271E-13 0.135E-13 -.148E+01   -.423E-21 -.857E-21 -.789E-03   0.465E-13 0.326E-13 0.814E-02
   0.110E-11 0.794E-11 0.453E-11   -.279E-13 0.255E-13 0.000E+00   -.184E-23 -.478E-23 -.136E-24   -.168E-12 -.169E-13 0.165E-11
   0.108E-11 -.436E-11 -.146E+01   0.384E-13 0.831E-14 0.143E+01   -.134E-20 -.104E-20 0.808E-02   -.155E-12 -.426E-14 0.245E-01
   0.108E-11 -.504E-11 0.146E+01   -.416E-13 0.115E-13 -.143E+01   0.153E-20 0.998E-21 -.808E-02   -.158E-12 -.930E-14 -.245E-01
   0.108E-11 -.652E-13 -.147E+01   -.193E-13 -.129E-13 0.148E+01   -.260E-20 0.487E-21 0.789E-03   -.125E-12 0.106E-14 -.814E-02
   0.109E-11 -.686E-13 0.605E-11   -.415E-13 -.114E-13 0.568E-13   -.451E-24 0.242E-23 0.121E-24   -.130E-12 0.484E-14 -.181E-11
   0.108E-11 -.712E-13 0.147E+01   -.351E-13 -.263E-13 -.148E+01   0.411E-20 -.127E-20 -.789E-03   -.130E-12 0.844E-14 0.814E-02
   -.338E-13 -.491E-13 -.389E-12   -.414E-14 -.303E-13 -.114E-12   -.128E-24 0.122E-24 0.275E-24   0.463E-13 0.888E-15 0.123E-11
   -.340E-13 -.483E-13 -.718E+00   -.715E-13 -.148E-13 0.706E+00   0.914E-20 -.386E-20 -.622E-02   0.451E-13 -.307E-15 0.161E-01
   -.339E-13 -.492E-13 0.718E+00   0.422E-13 0.101E-13 -.706E+00   -.742E-20 0.277E-20 0.622E-02   0.448E-13 0.780E-15 -.161E-01
 -----------------------------------------------------------------------------------------------
   0.618E-11 0.110E-11 0.323E-10   -.615E-13 0.760E-14 0.163E-12   0.610E-20 -.171E-20 0.260E-17   -.577E-12 0.807E-13 -.255E-12
 
 
 POSITION                                       TOTAL-FORCE (eV/Angst)
 -----------------------------------------------------------------------------------
      0.00000      1.84554      1.84661         0.000000     -0.000000      0.001593
      0.00000      1.84554      5.54166         0.000000      0.000000     -0.000000
      0.00000      1.84554      9.23672         0.000000     -0.000000     -0.001593
      1.84554      1.84554      0.00000         0.000000      0.000000     -0.000000
      1.84554      1.84554      3.69365        -0.000000     -0.000000      0.000227
      1.84554      1.84554      7.38968         0.000000     -0.000000     -0.000227
      1.84554      0.00000      1.84661        -0.000000      0.000000      0.001593
      1.84554      0.00000      5.54166         0.000000      0.000000     -0.000000
      1.84554      0.00000      9.23672        -0.000000      0.000000     -0.001593
      0.00000      0.00000      0.00000         0.000000      0.000000     -0.000000
      0.00000      0.00000      3.69434         0.000000      0.000000     -0.002104
      0.00000      0.00000      7.38898         0.000000      0.000000      0.002104
 -----------------------------------------------------------------------------------
    total drift:                                0.000000      0.000000      0.000000


--------------------------------------------------------------------------------------------------------



  FREE ENERGIE OF THE ION-ELECTRON SYSTEM (eV)
  ---------------------------------------------------
  free  energy   TOTEN  =       -93.41927904 eV

  energy  without entropy=      -93.41927904  energy(sigma->0) =      -93.41927904
 


--------------------------------------------------------------------------------------------------------


    POTLOK:  cpu time      0.0281: real time      0.4576


--------------------------------------------------------------------------------------------------------


     LOOP+:  cpu time    169.3298: real time    173.2095
 -----------------------------------------------------------------------------
|                                                                             |
|           W    W    AA    RRRRR   N    N  II  N    N   GGGG   !!!           |
|           W    W   A  A   R    R  NN   N  II  NN   N  G    G  !!!           |
|           W    W  A    A  R    R  N N  N  II  N N  N  G       !!!           |
|           W WW W  AAAAAA  RRRRR   N  N N  II  N  N N  G  GGG   !            |
|           WW  WW  A    A  R   R   N   NN  II  N   NN  G    G                |
|           W    W  A    A  R    R  N    N  II  N    N   GGGG   !!!           |
|                                                                             |
|     Tetrahedron method does not include variations of the Fermi             |
|     occupations, so forces and stress will be inaccurate. We suggest        |
|     using a different smearing scheme ISMEAR = 1 or 2 for metals in         |
|     relaxations.                                                            |
|                                                                             |
 -----------------------------------------------------------------------------

    4ORBIT:  cpu time      0.0000: real time      0.0000



 total charge

# of ion       s       p       d       tot
------------------------------------------
    1        0.356   6.344   6.045  12.745
    2        0.356   6.344   6.045  12.745
    3        0.356   6.344   6.045  12.745
    4        0.356   6.344   6.044  12.745
    5        0.356   6.344   6.044  12.744
    6        0.356   6.344   6.044  12.744
    7        0.356   6.344   6.045  12.745
    8        0.356   6.344   6.045  12.745
    9        0.356   6.344   6.045  12.745
   10        0.779   0.737   8.058   9.574
   11        0.778   0.737   8.058   9.574
   12        0.778   0.737   8.058   9.574
--------------------------------------------------
tot          5.542  59.309  78.576 143.426



 magnetization (x)

# of ion       s       p       d       tot
------------------------------------------
    1       -0.003  -0.016   2.692   2.673
    2       -0.003  -0.016   2.693   2.674
    3       -0.003  -0.016   2.692   2.673
    4       -0.003  -0.016   2.694   2.675
    5       -0.003  -0.016   2.701   2.682
    6       -0.003  -0.016   2.701   2.682
    7       -0.003  -0.016   2.692   2.673
    8       -0.003  -0.016   2.693   2.674
    9       -0.003  -0.016   2.692   2.673
   10       -0.041  -0.100   0.449   0.308
   11       -0.041  -0.100   0.451   0.310
   12       -0.041  -0.100   0.451   0.310
--------------------------------------------------
tot         -0.146  -0.447  25.601  25.008
 
 BZINTS: Fermi energy:   10.145873;  156.000000 electrons
         Band energy:-0.156533E+04;  BLOECHL correction:   -0.060313

 total amount of memory used by VASP MPI-rank0   185523. kBytes
=======================================================================

   base      :      30000. kBytes
   nonl-proj :     100657. kBytes
   fftplans  :        888. kBytes
   grid      :       6813. kBytes
   one-center:        373. kBytes
   wavefun   :      46792. kBytes
 
  
  
 General timing and accounting informations for this job:
 ========================================================
  
                  Total CPU time used (sec):      188.160
                            User time (sec):      180.262
                          System time (sec):        7.898
                         Elapsed time (sec):      198.809
  
                   Maximum memory used (kb):      820008.
                   Average memory used (kb):          N/A
  
                          Minor page faults:       154159
                          Major page faults:          121
                 Voluntary context switches:         6819
