 vasp.6.4.3 19Mar24 (build Mar 26 2024 14:05:37) complex                        
  
 executed on             LinuxIFC date 2024.12.16  08:25:04
 running  128 mpi-ranks, on    1 nodes
 distrk:  each k-point on   32 cores,    4 groups
 distr:  one band on NCORE=   1 cores,   32 groups


--------------------------------------------------------------------------------------------------------


 INCAR:
   ALGO = All
   EDIFF = 1e-06
   EDIFFG = -0.01
   ENCUT = 520
   GGA = Pe
   IBRION = 2
   ISIF = 4
   ISMEAR = 1
   ISPIN = 2
   KPAR = 4
   LCHARG = True
   LORBIT = 11
   LREAL = False
   LWAVE = False
   MAGMOM = 1*2.667 1*2.668 1*2.667 1*2.666 2*2.668 1*2.667 1*2.668 1*2.667 3*0.3
   NELM = 200
   NSW = 100
   PREC = Accurate
   SIGMA = 0.2

 POTCAR:    PAW_PBE Fe_pv 02Aug2007               
 POTCAR:    PAW_PBE Pt 04Feb2005                  
 -----------------------------------------------------------------------------
|                                                                             |
|           W    W    AA    RRRRR   N    N  II  N    N   GGGG   !!!           |
|           W    W   A  A   R    R  NN   N  II  NN   N  G    G  !!!           |
|           W    W  A    A  R    R  N N  N  II  N N  N  G       !!!           |
|           W WW W  AAAAAA  RRRRR   N  N N  II  N  N N  G  GGG   !            |
|           WW  WW  A    A  R   R   N   NN  II  N   NN  G    G                |
|           W    W  A    A  R    R  N    N  II  N    N   GGGG   !!!           |
|                                                                             |
|     For optimal performance we recommend to set                             |
|       NCORE = 2 up to number-of-cores-per-socket                            |
|     NCORE specifies how many cores store one orbital (NPAR=cpu/NCORE).      |
|     This setting can greatly improve the performance of VASP for DFT.       |
|     The default, NCORE=1 might be grossly inefficient on modern             |
|     multi-core architectures or massively parallel machines. Do your        |
|     own testing! More info at https://www.vasp.at/wiki/index.php/NCORE      |
|     Unfortunately you need to use the default for GW and RPA                |
|     calculations (for HF NCORE is supported but not extensively tested      |
|     yet).                                                                   |
|                                                                             |
 -----------------------------------------------------------------------------

 POTCAR:    PAW_PBE Fe_pv 02Aug2007               
   SHA256 =  5d22e414b1f82158bf2c7ecb8b97b28fd0923e48cadc1c3bf74d524558f5dd32 Fe_pv/POTCAR          
   COPYR  = (c) Copyright 02Aug2007 Georg Kresse                                                    
   COPYR  = This file is part of the software VASP. Any use, copying, and all other rights are regul
   COPYR  = If you do not have a valid VASP license, you may not use, copy or distribute this file. 
   VRHFIN =Fe:  3pd7s1                                                                              
   LEXCH  = PE                                                                                      
   EATOM  =  2457.4239 eV,  180.6156 Ry                                                             
                                                                                                    
   TITEL  = PAW_PBE Fe_pv 02Aug2007                                                                 
   LULTRA =        F    use ultrasoft PP ?                                                          
   IUNSCR =        1    unscreen: 0-lin 1-nonlin 2-no                                               
   RPACOR =    1.750    partial core radius                                                         
   POMASS =   55.847; ZVAL   =   14.000    mass and valenz                                          
   RCORE  =    2.200    outmost cutoff radius                                                       
   RWIGS  =    2.200; RWIGS  =    1.164    wigner-seitz radius (au A)                               
   ENMAX  =  293.238; ENMIN  =  219.928 eV                                                          
   ICORE  =        3    local potential                                                             
   LCOR   =        T    correct aug charges                                                         
   LPAW   =        T    paw PP                                                                      
   EAUG   =  578.342                                                                                
   DEXC   =    0.000                                                                                
   RMAX   =    2.249    core radius for proj-oper                                                   
   RAUG   =    1.300    factor for augmentation sphere                                              
   RDEP   =    2.296    radius for radial grids                                                     
   RDEPT  =    1.766    core radius for aug-charge                                                  
                                                                                                    
   Atomic configuration                                                                             
    8 entries                                                                                       
     n  l   j            E        occ.                                                              
     1  0  0.50     -6993.8440   2.0000                                                             
     2  0  0.50      -814.6047   2.0000                                                             
     2  1  1.50      -693.3689   6.0000                                                             
     3  0  0.50       -89.4732   2.0000                                                             
     3  1  1.50       -55.6373   6.0000                                                             
     3  2  2.50        -3.8151   7.0000                                                             
     4  0  0.50        -4.2551   1.0000                                                             
     4  3  2.50        -1.3606   0.0000                                                             
   Description                                                                                      
     l       E           TYP  RCUT    TYP  RCUT                                                     
     1    -55.6372668     23  2.000                                                                 
     1     -5.4423304     23  2.000                                                                 
     2     -3.8151096     23  2.200                                                                 
     2     -5.1756922     23  2.200                                                                 
     0     -4.2550951     23  2.200                                                                 
     0     27.2116520     23  2.200                                                                 
     3     -1.3605826     23  2.200                                                                 
  local pseudopotential read in
  partial core-charges read in
  partial kinetic energy density read in
  atomic valenz-charges read in
  non local Contribution for L=           1  read in
    real space projection operators read in
  non local Contribution for L=           1  read in
    real space projection operators read in
  non local Contribution for L=           2  read in
    real space projection operators read in
  non local Contribution for L=           2  read in
    real space projection operators read in
  non local Contribution for L=           0  read in
    real space projection operators read in
  non local Contribution for L=           0  read in
    real space projection operators read in
    PAW grid and wavefunctions read in
 
   number of l-projection  operators is LMAX  =           6
   number of lm-projection operators is LMMAX =          18
 
 POTCAR:    PAW_PBE Pt 04Feb2005                  
   SHA256 =  3ed90460adef76debcff1cfb73ee1349b515b1a3db03439735b44de3a8db7dc8 Pt/POTCAR             
   COPYR  = (c) Copyright 04Feb2005 Georg Kresse                                                    
   COPYR  = This file is part of the software VASP. Any use, copying, and all other rights are regul
   COPYR  = If you do not have a valid VASP license, you may not use, copy or distribute this file. 
   VRHFIN =Pt: s1d9                                                                                 
   LEXCH  = PE                                                                                      
   EATOM  =   729.1176 eV,   53.5886 Ry                                                             
                                                                                                    
   TITEL  = PAW_PBE Pt 04Feb2005                                                                    
   LULTRA =        F    use ultrasoft PP ?                                                          
   IUNSCR =        1    unscreen: 0-lin 1-nonlin 2-no                                               
   RPACOR =    2.330    partial core radius                                                         
   POMASS =  195.080; ZVAL   =   10.000    mass and valenz                                          
   RCORE  =    2.600    outmost cutoff radius                                                       
   RWIGS  =    2.750; RWIGS  =    1.455    wigner-seitz radius (au A)                               
   ENMAX  =  230.283; ENMIN  =  172.712 eV                                                          
   ICORE  =        3    local potential                                                             
   LCOR   =        T    correct aug charges                                                         
   LPAW   =        T    paw PP                                                                      
   EAUG   =  358.966                                                                                
   DEXC   =    0.000                                                                                
   RMAX   =    2.658    core radius for proj-oper                                                   
   RAUG   =    1.300    factor for augmentation sphere                                              
   RDEP   =    2.761    radius for radial grids                                                     
   RDEPT  =    2.203    core radius for aug-charge                                                  
                                                                                                    
   Atomic configuration                                                                             
   16 entries                                                                                       
     n  l   j            E        occ.                                                              
     1  0  0.50    -78401.1885   2.0000                                                             
     2  0  0.50    -13770.7750   2.0000                                                             
     2  1  1.50    -11931.0468   6.0000                                                             
     3  0  0.50     -3234.7234   2.0000                                                             
     3  1  1.50     -2699.2216   6.0000                                                             
     3  2  2.50     -2119.5714  10.0000                                                             
     4  0  0.50      -695.1528   2.0000                                                             
     4  1  1.50      -519.6034   6.0000                                                             
     4  2  2.50      -306.6786  10.0000                                                             
     4  3  3.50       -70.1041  14.0000                                                             
     5  0  0.50      -101.7747   2.0000                                                             
     5  1  1.50       -55.9873   6.0000                                                             
     5  2  2.50        -6.1423   9.0000                                                             
     6  0  0.50        -5.6573   1.0000                                                             
     6  1  1.50        -6.8029   0.0000                                                             
     5  3  2.50        -1.3606   0.0000                                                             
   Description                                                                                      
     l       E           TYP  RCUT    TYP  RCUT                                                     
     2     -6.1423404     23  2.500                                                                 
     2     -7.5029230     23  2.500                                                                 
     0     -5.6573207     23  2.500                                                                 
     0      0.7416693     23  2.500                                                                 
     1     -2.7211652     23  2.600                                                                 
     1     20.4087390     23  2.600                                                                 
     3     -1.3605826     23  2.500                                                                 
  local pseudopotential read in
  partial core-charges read in
  partial kinetic energy density read in
  atomic valenz-charges read in
  non local Contribution for L=           2  read in
    real space projection operators read in
  non local Contribution for L=           2  read in
    real space projection operators read in
  non local Contribution for L=           0  read in
    real space projection operators read in
  non local Contribution for L=           0  read in
    real space projection operators read in
  non local Contribution for L=           1  read in
    real space projection operators read in
  non local Contribution for L=           1  read in
    real space projection operators read in
    PAW grid and wavefunctions read in
 
   number of l-projection  operators is LMAX  =           6
   number of lm-projection operators is LMMAX =          18
 
  PAW_PBE Fe_pv 02Aug2007               :
 energy of atom  1       EATOM=-2457.4239
 kinetic energy error for atom=    0.0062 (will be added to EATOM!!)
  PAW_PBE Pt 04Feb2005                  :
 energy of atom  2       EATOM= -729.1176
 kinetic energy error for atom=    0.0032 (will be added to EATOM!!)
 
 
 POSCAR: Fe9 Pt3
  positions in direct lattice
  velocities in cartesian coordinates


 exchange-correlation table for PE
   RHO(1)=    0.500       N(1)  =     2000
   RHO(2)=  100.500       N(2)  =     4000
 


--------------------------------------------------------------------------------------------------------


 ion  position               nearest neighbor table
   1  0.000  0.500  0.167-   7 2.61   7 2.61   7 2.61   7 2.61  10 2.61   4 2.61  10 2.61   4 2.61
                             5 2.61   5 2.61  11 2.61  11 2.61
   2  0.000  0.500  0.500-   8 2.61   8 2.61   8 2.61   8 2.61  11 2.61  12 2.61  12 2.61  11 2.61
                             5 2.61   6 2.61   5 2.61   6 2.61
   3  0.000  0.500  0.833-   9 2.61   9 2.61   9 2.61   9 2.61  10 2.61   4 2.61  10 2.61   4 2.61
                             6 2.61   6 2.61  12 2.61  12 2.61
   4  0.500  0.500  0.000-  10 2.61  10 2.61  10 2.61  10 2.61   1 2.61   7 2.61   9 2.61   3 2.61
                             1 2.61   3 2.61   7 2.61   9 2.61
   5  0.500  0.500  0.333-  11 2.61  11 2.61  11 2.61  11 2.61   7 2.61   1 2.61   1 2.61   7 2.61
                             8 2.61   2 2.61   8 2.61   2 2.61
   6  0.500  0.500  0.667-  12 2.61  12 2.61  12 2.61  12 2.61   9 2.61   3 2.61   3 2.61   9 2.61
                             2 2.61   8 2.61   2 2.61   8 2.61
   7  0.500  0.000  0.167-   1 2.61   1 2.61   1 2.61   1 2.61   4 2.61  10 2.61  10 2.61   4 2.61
                             5 2.61   5 2.61  11 2.61  11 2.61
   8  0.500  0.000  0.500-   2 2.61   2 2.61   2 2.61   2 2.61  12 2.61  11 2.61  12 2.61  11 2.61
                             6 2.61   5 2.61   5 2.61   6 2.61
   9  0.500  0.000  0.833-   3 2.61   3 2.61   3 2.61   3 2.61   4 2.61  10 2.61  10 2.61   4 2.61
                             6 2.61   6 2.61  12 2.61  12 2.61
  10  0.000  0.000  0.000-   4 2.61   4 2.61   4 2.61   4 2.61   9 2.61   1 2.61   3 2.61   3 2.61
                             1 2.61   7 2.61   9 2.61   7 2.61
  11  0.000  0.000  0.333-   5 2.61   5 2.61   5 2.61   5 2.61   2 2.61   8 2.61   8 2.61   2 2.61
                             1 2.61   7 2.61   7 2.61   1 2.61
  12  0.000  0.000  0.667-   6 2.61   6 2.61   6 2.61   6 2.61   2 2.61   8 2.61   8 2.61   2 2.61
                             3 2.61   3 2.61   9 2.61   9 2.61
 
  LATTYP: Found a simple tetragonal cell.
 ALAT       =     3.6910793746
 C/A-ratio  =     3.0027335306
  
  Lattice vectors:
  
 A1 = (   3.6910793746,   0.0000000000,   0.0000000000)
 A2 = (   0.0000000000,   3.6910793746,   0.0000000000)
 A3 = (   0.0000000000,   0.0000000000,  11.0833278022)


Analysis of symmetry for initial positions (statically):
=====================================================================
 Subroutine PRICEL returns:
 Original cell was already a primitive cell.
 

 Routine SETGRP: Setting up the symmetry group for a 
 simple tetragonal supercell.


 Subroutine GETGRP returns: Found 16 space group operations
 (whereof 16 operations were pure point group operations)
 out of a pool of 16 trial point group operations.


The static configuration has the point symmetry D_4h.


Analysis of symmetry for dynamics (positions and initial velocities):
=====================================================================
 Subroutine PRICEL returns:
 Original cell was already a primitive cell.
 

 Routine SETGRP: Setting up the symmetry group for a 
 simple tetragonal supercell.


 Subroutine GETGRP returns: Found 16 space group operations
 (whereof 16 operations were pure point group operations)
 out of a pool of 16 trial point group operations.


The dynamic configuration has the point symmetry D_4h.


Analysis of structural, dynamic, and magnetic symmetry:
=====================================================================
 Subroutine PRICEL returns:
 Original cell was already a primitive cell.
 

 Routine SETGRP: Setting up the symmetry group for a 
 simple tetragonal supercell.


 Subroutine GETGRP returns: Found 16 space group operations
 (whereof 16 operations were pure point group operations)
 out of a pool of 16 trial point group operations.


The overall configuration has the point symmetry D_4h.


 Subroutine INISYM returns: Found 16 space group operations
 (whereof 16 operations are pure point group operations),
 and found     1 'primitive' translations


----------------------------------------------------------------------------------------

                                     Primitive cell                                     

  volume of cell :     151.0000

  direct lattice vectors                    reciprocal lattice vectors
     3.691079375  0.000000000  0.000000000     0.270923461  0.000000000  0.000000000
     0.000000000  3.691079375  0.000000000     0.000000000  0.270923461  0.000000000
     0.000000000  0.000000000 11.083327802     0.000000000  0.000000000  0.090225609

  length of vectors
     3.691079375  3.691079375 11.083327802     0.270923461  0.270923461  0.090225609

  position of ions in fractional coordinates (direct lattice)
     0.000000000  0.500000000  0.166611204
     0.000000000  0.500000000  0.500000000
     0.000000000  0.500000000  0.833388796
     0.500000000  0.500000000  0.000000000
     0.500000000  0.500000000  0.333261410
     0.500000000  0.500000000  0.666738590
     0.500000000  0.000000000  0.166611204
     0.500000000  0.000000000  0.500000000
     0.500000000  0.000000000  0.833388796
     0.000000000  0.000000000  0.000000000
     0.000000000  0.000000000  0.333324505
     0.000000000  0.000000000  0.666675495

  ion indices of the primitive-cell ions
   primitive index   ion index
                 1           1
                 2           2
                 3           3
                 4           4
                 5           5
                 6           6
                 7           7
                 8           8
                 9           9
                10          10
                11          11
                12          12

----------------------------------------------------------------------------------------

 
 
 KPOINTS: pymatgen with grid density = 8800 / numb

Automatic generation of k-mesh.
 Grid dimensions read from file:
 generate k-points for:   13   13    4

 Generating k-lattice:

  Cartesian coordinates                     Fractional coordinates (reciprocal lattice)
     0.020840266  0.000000000  0.000000000     0.076923077  0.000000000  0.000000000
     0.000000000  0.020840266  0.000000000     0.000000000  0.076923077  0.000000000
     0.000000000  0.000000000  0.022556402     0.000000000  0.000000000  0.250000000

  Length of vectors
     0.020840266  0.020840266  0.022556402

  Shift w.r.t. Gamma in fractional coordinates (k-lattice)
     0.000000000  0.000000000  0.000000000

 
 Subroutine IBZKPT returns following result:
 ===========================================
 
 Found     84 irreducible k-points:
 
 Following reciprocal coordinates:
            Coordinates               Weight
  0.000000  0.000000  0.000000      1.000000
  0.076923  0.000000  0.000000      4.000000
  0.153846  0.000000  0.000000      4.000000
  0.230769  0.000000  0.000000      4.000000
  0.307692  0.000000  0.000000      4.000000
  0.384615  0.000000  0.000000      4.000000
  0.461538  0.000000  0.000000      4.000000
  0.076923  0.076923  0.000000      4.000000
  0.153846  0.076923  0.000000      8.000000
  0.230769  0.076923  0.000000      8.000000
  0.307692  0.076923  0.000000      8.000000
  0.384615  0.076923  0.000000      8.000000
  0.461538  0.076923  0.000000      8.000000
  0.153846  0.153846  0.000000      4.000000
  0.230769  0.153846  0.000000      8.000000
  0.307692  0.153846  0.000000      8.000000
  0.384615  0.153846  0.000000      8.000000
  0.461538  0.153846  0.000000      8.000000
  0.230769  0.230769  0.000000      4.000000
  0.307692  0.230769  0.000000      8.000000
  0.384615  0.230769  0.000000      8.000000
  0.461538  0.230769  0.000000      8.000000
  0.307692  0.307692  0.000000      4.000000
  0.384615  0.307692  0.000000      8.000000
  0.461538  0.307692  0.000000      8.000000
  0.384615  0.384615  0.000000      4.000000
  0.461538  0.384615  0.000000      8.000000
  0.461538  0.461538  0.000000      4.000000
  0.000000  0.000000  0.250000      2.000000
  0.076923  0.000000  0.250000      8.000000
  0.153846  0.000000  0.250000      8.000000
  0.230769  0.000000  0.250000      8.000000
  0.307692  0.000000  0.250000      8.000000
  0.384615  0.000000  0.250000      8.000000
  0.461538  0.000000  0.250000      8.000000
  0.076923  0.076923  0.250000      8.000000
  0.153846  0.076923  0.250000     16.000000
  0.230769  0.076923  0.250000     16.000000
  0.307692  0.076923  0.250000     16.000000
  0.384615  0.076923  0.250000     16.000000
  0.461538  0.076923  0.250000     16.000000
  0.153846  0.153846  0.250000      8.000000
  0.230769  0.153846  0.250000     16.000000
  0.307692  0.153846  0.250000     16.000000
  0.384615  0.153846  0.250000     16.000000
  0.461538  0.153846  0.250000     16.000000
  0.230769  0.230769  0.250000      8.000000
  0.307692  0.230769  0.250000     16.000000
  0.384615  0.230769  0.250000     16.000000
  0.461538  0.230769  0.250000     16.000000
  0.307692  0.307692  0.250000      8.000000
  0.384615  0.307692  0.250000     16.000000
  0.461538  0.307692  0.250000     16.000000
  0.384615  0.384615  0.250000      8.000000
  0.461538  0.384615  0.250000     16.000000
  0.461538  0.461538  0.250000      8.000000
  0.000000  0.000000  0.500000      1.000000
  0.076923  0.000000  0.500000      4.000000
  0.153846  0.000000  0.500000      4.000000
  0.230769  0.000000  0.500000      4.000000
  0.307692  0.000000  0.500000      4.000000
  0.384615  0.000000  0.500000      4.000000
  0.461538  0.000000  0.500000      4.000000
  0.076923  0.076923  0.500000      4.000000
  0.153846  0.076923  0.500000      8.000000
  0.230769  0.076923  0.500000      8.000000
  0.307692  0.076923  0.500000      8.000000
  0.384615  0.076923  0.500000      8.000000
  0.461538  0.076923  0.500000      8.000000
  0.153846  0.153846  0.500000      4.000000
  0.230769  0.153846  0.500000      8.000000
  0.307692  0.153846  0.500000      8.000000
  0.384615  0.153846  0.500000      8.000000
  0.461538  0.153846  0.500000      8.000000
  0.230769  0.230769  0.500000      4.000000
  0.307692  0.230769  0.500000      8.000000
  0.384615  0.230769  0.500000      8.000000
  0.461538  0.230769  0.500000      8.000000
  0.307692  0.307692  0.500000      4.000000
  0.384615  0.307692  0.500000      8.000000
  0.461538  0.307692  0.500000      8.000000
  0.384615  0.384615  0.500000      4.000000
  0.461538  0.384615  0.500000      8.000000
  0.461538  0.461538  0.500000      4.000000
 
 Following cartesian coordinates:
            Coordinates               Weight
  0.000000  0.000000  0.000000      1.000000
  0.020840  0.000000  0.000000      4.000000
  0.041681  0.000000  0.000000      4.000000
  0.062521  0.000000  0.000000      4.000000
  0.083361  0.000000  0.000000      4.000000
  0.104201  0.000000  0.000000      4.000000
  0.125042  0.000000  0.000000      4.000000
  0.020840  0.020840  0.000000      4.000000
  0.041681  0.020840  0.000000      8.000000
  0.062521  0.020840  0.000000      8.000000
  0.083361  0.020840  0.000000      8.000000
  0.104201  0.020840  0.000000      8.000000
  0.125042  0.020840  0.000000      8.000000
  0.041681  0.041681  0.000000      4.000000
  0.062521  0.041681  0.000000      8.000000
  0.083361  0.041681  0.000000      8.000000
  0.104201  0.041681  0.000000      8.000000
  0.125042  0.041681  0.000000      8.000000
  0.062521  0.062521  0.000000      4.000000
  0.083361  0.062521  0.000000      8.000000
  0.104201  0.062521  0.000000      8.000000
  0.125042  0.062521  0.000000      8.000000
  0.083361  0.083361  0.000000      4.000000
  0.104201  0.083361  0.000000      8.000000
  0.125042  0.083361  0.000000      8.000000
  0.104201  0.104201  0.000000      4.000000
  0.125042  0.104201  0.000000      8.000000
  0.125042  0.125042  0.000000      4.000000
  0.000000  0.000000  0.022556      2.000000
  0.020840  0.000000  0.022556      8.000000
  0.041681  0.000000  0.022556      8.000000
  0.062521  0.000000  0.022556      8.000000
  0.083361  0.000000  0.022556      8.000000
  0.104201  0.000000  0.022556      8.000000
  0.125042  0.000000  0.022556      8.000000
  0.020840  0.020840  0.022556      8.000000
  0.041681  0.020840  0.022556     16.000000
  0.062521  0.020840  0.022556     16.000000
  0.083361  0.020840  0.022556     16.000000
  0.104201  0.020840  0.022556     16.000000
  0.125042  0.020840  0.022556     16.000000
  0.041681  0.041681  0.022556      8.000000
  0.062521  0.041681  0.022556     16.000000
  0.083361  0.041681  0.022556     16.000000
  0.104201  0.041681  0.022556     16.000000
  0.125042  0.041681  0.022556     16.000000
  0.062521  0.062521  0.022556      8.000000
  0.083361  0.062521  0.022556     16.000000
  0.104201  0.062521  0.022556     16.000000
  0.125042  0.062521  0.022556     16.000000
  0.083361  0.083361  0.022556      8.000000
  0.104201  0.083361  0.022556     16.000000
  0.125042  0.083361  0.022556     16.000000
  0.104201  0.104201  0.022556      8.000000
  0.125042  0.104201  0.022556     16.000000
  0.125042  0.125042  0.022556      8.000000
  0.000000  0.000000  0.045113      1.000000
  0.020840  0.000000  0.045113      4.000000
  0.041681  0.000000  0.045113      4.000000
  0.062521  0.000000  0.045113      4.000000
  0.083361  0.000000  0.045113      4.000000
  0.104201  0.000000  0.045113      4.000000
  0.125042  0.000000  0.045113      4.000000
  0.020840  0.020840  0.045113      4.000000
  0.041681  0.020840  0.045113      8.000000
  0.062521  0.020840  0.045113      8.000000
  0.083361  0.020840  0.045113      8.000000
  0.104201  0.020840  0.045113      8.000000
  0.125042  0.020840  0.045113      8.000000
  0.041681  0.041681  0.045113      4.000000
  0.062521  0.041681  0.045113      8.000000
  0.083361  0.041681  0.045113      8.000000
  0.104201  0.041681  0.045113      8.000000
  0.125042  0.041681  0.045113      8.000000
  0.062521  0.062521  0.045113      4.000000
  0.083361  0.062521  0.045113      8.000000
  0.104201  0.062521  0.045113      8.000000
  0.125042  0.062521  0.045113      8.000000
  0.083361  0.083361  0.045113      4.000000
  0.104201  0.083361  0.045113      8.000000
  0.125042  0.083361  0.045113      8.000000
  0.104201  0.104201  0.045113      4.000000
  0.125042  0.104201  0.045113      8.000000
  0.125042  0.125042  0.045113      4.000000
 


--------------------------------------------------------------------------------------------------------




 Dimension of arrays:
   k-points           NKPTS =     84   k-points in BZ     NKDIM =     84   number of bands    NBANDS=    128
   number of dos      NEDOS =    301   number of ions     NIONS =     12
   non local maximal  LDIM  =      6   non local SUM 2l+1 LMDIM =     18
   total plane-waves  NPLWV =  65856
   max r-space proj   IRMAX =      1   max aug-charges    IRDMAX=  26612
   dimension x,y,z NGX =    28 NGY =   28 NGZ =   84
   dimension x,y,z NGXF=    56 NGYF=   56 NGZF=  168
   support grid    NGXF=    56 NGYF=   56 NGZF=  168
   ions per type =               9   3
   NGX,Y,Z   is equivalent  to a cutoff of  12.61, 12.61, 12.60 a.u.
   NGXF,Y,Z  is equivalent  to a cutoff of  25.22, 25.22, 25.20 a.u.

 SYSTEM =  unknown system                          
 POSCAR =  Fe9 Pt3                                 

 Startparameter for this run:
   NWRITE =      2    write-flag & timer
   PREC   = accura    normal or accurate (medium, high low for compatibility)
   ISTART =      0    job   : 0-new  1-cont  2-samecut
   ICHARG =      2    charge: 1-file 2-atom 10-const
   ISPIN  =      2    spin polarized calculation?
   LNONCOLLINEAR =      F non collinear calculations
   LSORBIT =      F    spin-orbit coupling
   INIWAV =      1    electr: 0-lowe 1-rand  2-diag
   LASPH  =      F    aspherical Exc in radial PAW
 Electronic Relaxation 1
   ENCUT  =  520.0 eV  38.22 Ry    6.18 a.u.   6.86  6.86 20.61*2*pi/ulx,y,z
   ENINI  =  520.0     initial cutoff
   ENAUG  =  578.3 eV  augmentation charge cutoff
   NELM   =    200;   NELMIN=  2; NELMDL=  0     # of ELM steps 
   EDIFF  = 0.1E-05   stopping-criterion for ELM
   LREAL  =      F    real-space projection
   NLSPLINE    = F    spline interpolate recip. space projectors
   LCOMPAT=      F    compatible to vasp.4.4
   GGA_COMPAT  = T    GGA compatible to vasp.4.4-vasp.4.6
   LMAXPAW     = -100 max onsite density
   LMAXMIX     =    2 max onsite mixed and CHGCAR
   VOSKOWN=      0    Vosko Wilk Nusair interpolation
   ROPT   =    0.00000   0.00000
 Ionic relaxation
   EDIFFG = -.1E-01   stopping-criterion for IOM
   NSW    =    100    number of steps for IOM
   NBLOCK =      1;   KBLOCK =    100    inner block; outer block 
   IBRION =      2    ionic relax: 0-MD 1-quasi-New 2-CG
   NFREE  =      1    steps in history (QN), initial steepest desc. (CG)
   ISIF   =      4    stress and relaxation
   IWAVPR =     11    prediction:  0-non 1-charg 2-wave 3-comb
   ISYM   =      2    0-nonsym 1-usesym 2-fastsym
   LCORR  =      T    Harris-Foulkes like correction to forces

   POTIM  = 0.5000    time-step for ionic-motion
   TEIN   =    0.0    initial temperature
   TEBEG  =    0.0;   TEEND  =   0.0 temperature during run
   SMASS  =  -3.00    Nose mass-parameter (am)
   estimated Nose-frequenzy (Omega)   =  0.10E-29 period in steps = 0.13E+47 mass=  -0.311E-27a.u.
   SCALEE = 1.0000    scale energy and forces
   NPACO  =    256;   APACO  = 10.0  distance and # of slots for P.C.
   PSTRESS=    0.0 pullay stress

  Mass of Ions in am
   POMASS =  55.85195.08
  Ionic Valenz
   ZVAL   =  14.00 10.00
  Atomic Wigner-Seitz radii
   RWIGS  =  -1.00 -1.00
  virtual crystal weights 
   VCA    =   1.00  1.00
   NELECT =     156.0000    total number of electrons
   NUPDOWN=      -1.0000    fix difference up-down

 DOS related values:
   EMIN   =  10.00;   EMAX   =-10.00  energy-range for DOS
   EFERMI =   0.00;   METHOD = LEGACY      
   ISMEAR =     1;   SIGMA  =   0.20  broadening in eV -4-tet -1-fermi 0-gaus

 Electronic relaxation 2 (details)
   IALGO  =     58    algorithm
   LDIAG  =      T    sub-space diagonalisation (order eigenvalues)
   LSUBROT=      F    optimize rotation matrix (better conditioning)
   TURBO    =      0    0=normal 1=particle mesh
   IRESTART =      0    0=no restart 2=restart with 2 vectors
   NREBOOT  =      0    no. of reboots
   NMIN     =      0    reboot dimension
   EREF     =   0.00    reference energy to select bands
   IMIX   =      4    mixing-type and parameters
     AMIX     =   0.40;   BMIX     =  1.00
     AMIX_MAG =   1.60;   BMIX_MAG =  1.00
     AMIN     =   0.10
     WC   =   100.;   INIMIX=   1;  MIXPRE=   1;  MAXMIX= -45

 Intra band minimization:
   WEIMIN = 0.0010     energy-eigenvalue tresh-hold
   EBREAK =  0.20E-08  absolut break condition
   DEPER  =   0.30     relativ break condition  

   TIME   =   0.40     timestep for ELM

  volume/ion in A,a.u.               =      12.58        84.92
  Fermi-wavevector in a.u.,A,eV,Ry     =   1.654972  3.127444 37.265448  2.738933
  Thomas-Fermi vector in A             =   2.743148
 
 Write flags
   LWAVE        =      F    write WAVECAR
   LDOWNSAMPLE  =      F    k-point downsampling of WAVECAR
   LCHARG       =      T    write CHGCAR
   LVTOT        =      F    write LOCPOT, total local potential
   LVHAR        =      F    write LOCPOT, Hartree potential only
   WRT_POTENTIAL= false  ! write potential to hdf5 file
   LELF         =      F    write electronic localiz. function (ELF)
   LORBIT       =     11    0 simple, 1 ext, 2 COOP (PROOUT), +10 PAW based schemes


 Dipole corrections
   LMONO      =      F    monopole corrections only (constant potential shift)
   LDIPOL     =      F    correct potential (dipole corrections)
   IDIPOL     =      0    1-x, 2-y, 3-z, 4-all directions 
   EPSILON    =  1.0000000 bulk dielectric constant
   LVACPOTAV  =      F  vacuum potentials using an averaging scheme for the charge density
   VACPOTFLAT =  0.1000000 required flatness to determine vacuum potential
 Exchange correlation treatment:
   GGA     = PE    functional components
   XC_C    = 1    coefficients multiplying the functional components
   LIBXC   =     F    Libxc                    
   VOSKOWN =     0    Vosko Wilk Nusair interpolation
   LHFCALC =     F    Hartree Fock is set to
   LHFONE  =     F    Hartree Fock one center treatment
   AEXX    =    0.0000 exact exchange contribution

 Parameters of functionals:
   PE:
     No parameter
 
 Van der Waals corrections
   IVDW    =     0    specifies the selected vdW correction

 Linear response parameters
   LEPSILON=     F    determine dielectric tensor
   LRPA    =     F    only Hartree local field effects (RPA)
   LNABLA  =     F    use nabla operator in PAW spheres
   LVEL    =     F    velocity operator in full k-point grid
   CSHIFT  =0.1000    complex shift for real part using Kramers Kronig
   OMEGAMAX=  -1.0    maximum frequency
   DEG_THRESHOLD= 0.2000000E-02 threshold for treating states as degnerate
   RTIME   =   -0.100 relaxation time in fs
  (WPLASMAI=    0.000 imaginary part of plasma frequency in eV, 0.658/RTIME)
   DFIELD  = 0.0000000 0.0000000 0.0000000 field for delta impulse in time
 
  Optional k-point grid parameters
   LKPOINTS_OPT  =     F    use optional k-point grid
   KPOINTS_OPT_MODE=     1    mode for optional k-point grid
 
 Orbital magnetization related:
   ORBITALMAG=     F  switch on orbital magnetization
   LCHIMAG   =     F  perturbation theory with respect to B field
   DQ        =  0.001000  dq finite difference perturbation B field
   LLRAUG    =     F  two centre corrections for induced B field
   LBONE     =     F  B-component reconstruction in AE one-centre
   LVGVCALC  =     T  calculate vGv susceptibility
   LVGVAPPL  =     F  apply vGv susceptibility instead of pGv for G=0

 Random number generation:
   RANDOM_GENERATOR = DEFAULT
   PCG_SEED         = not used


--------------------------------------------------------------------------------------------------------


 conjugate gradient relaxation of ions
 charge density and potential will be updated during run
 spin polarized calculation
 Conjugate gradient for all bands (Freysoldt, et al. PRB 79, 241103 (2009))
 preconditioned conjugated gradient                                        
 perform sub-space diagonalisation
    before iterative eigenvector-optimisation
 modified Broyden-mixing scheme, WC =      100.0
 initial mixing is a Kerker type mixing with AMIX =  0.4000 and BMIX =      1.0000
 Hartree-type preconditioning will be used
 using additional bands           50
 reciprocal scheme for non local part
 use partial core corrections
 no Harris-corrections to forces 
 use gradient corrections 
 use of overlap-Matrix (Vanderbilt PP)
 Methfessel and Paxton  Order N= 1 SIGMA  =   0.20


--------------------------------------------------------------------------------------------------------


  energy-cutoff  :      520.00
  volume of cell :      151.00
      direct lattice vectors                 reciprocal lattice vectors
     3.691079375  0.000000000  0.000000000     0.270923461  0.000000000  0.000000000
     0.000000000  3.691079375  0.000000000     0.000000000  0.270923461  0.000000000
     0.000000000  0.000000000 11.083327802     0.000000000  0.000000000  0.090225609

  length of vectors
     3.691079375  3.691079375 11.083327802     0.270923461  0.270923461  0.090225609


 
 k-points in units of 2pi/SCALE and weight: pymatgen with grid density = 8800 / numb
   0.00000000  0.00000000  0.00000000       0.001
   0.02084027  0.00000000  0.00000000       0.006
   0.04168053  0.00000000  0.00000000       0.006
   0.06252080  0.00000000  0.00000000       0.006
   0.08336107  0.00000000  0.00000000       0.006
   0.10420133  0.00000000  0.00000000       0.006
   0.12504160  0.00000000  0.00000000       0.006
   0.02084027  0.02084027  0.00000000       0.006
   0.04168053  0.02084027  0.00000000       0.012
   0.06252080  0.02084027  0.00000000       0.012
   0.08336107  0.02084027  0.00000000       0.012
   0.10420133  0.02084027  0.00000000       0.012
   0.12504160  0.02084027  0.00000000       0.012
   0.04168053  0.04168053  0.00000000       0.006
   0.06252080  0.04168053  0.00000000       0.012
   0.08336107  0.04168053  0.00000000       0.012
   0.10420133  0.04168053  0.00000000       0.012
   0.12504160  0.04168053  0.00000000       0.012
   0.06252080  0.06252080  0.00000000       0.006
   0.08336107  0.06252080  0.00000000       0.012
   0.10420133  0.06252080  0.00000000       0.012
   0.12504160  0.06252080  0.00000000       0.012
   0.08336107  0.08336107  0.00000000       0.006
   0.10420133  0.08336107  0.00000000       0.012
   0.12504160  0.08336107  0.00000000       0.012
   0.10420133  0.10420133  0.00000000       0.006
   0.12504160  0.10420133  0.00000000       0.012
   0.12504160  0.12504160  0.00000000       0.006
   0.00000000  0.00000000  0.02255640       0.003
   0.02084027  0.00000000  0.02255640       0.012
   0.04168053  0.00000000  0.02255640       0.012
   0.06252080  0.00000000  0.02255640       0.012
   0.08336107  0.00000000  0.02255640       0.012
   0.10420133  0.00000000  0.02255640       0.012
   0.12504160  0.00000000  0.02255640       0.012
   0.02084027  0.02084027  0.02255640       0.012
   0.04168053  0.02084027  0.02255640       0.024
   0.06252080  0.02084027  0.02255640       0.024
   0.08336107  0.02084027  0.02255640       0.024
   0.10420133  0.02084027  0.02255640       0.024
   0.12504160  0.02084027  0.02255640       0.024
   0.04168053  0.04168053  0.02255640       0.012
   0.06252080  0.04168053  0.02255640       0.024
   0.08336107  0.04168053  0.02255640       0.024
   0.10420133  0.04168053  0.02255640       0.024
   0.12504160  0.04168053  0.02255640       0.024
   0.06252080  0.06252080  0.02255640       0.012
   0.08336107  0.06252080  0.02255640       0.024
   0.10420133  0.06252080  0.02255640       0.024
   0.12504160  0.06252080  0.02255640       0.024
   0.08336107  0.08336107  0.02255640       0.012
   0.10420133  0.08336107  0.02255640       0.024
   0.12504160  0.08336107  0.02255640       0.024
   0.10420133  0.10420133  0.02255640       0.012
   0.12504160  0.10420133  0.02255640       0.024
   0.12504160  0.12504160  0.02255640       0.012
   0.00000000  0.00000000  0.04511280       0.001
   0.02084027  0.00000000  0.04511280       0.006
   0.04168053  0.00000000  0.04511280       0.006
   0.06252080  0.00000000  0.04511280       0.006
   0.08336107  0.00000000  0.04511280       0.006
   0.10420133  0.00000000  0.04511280       0.006
   0.12504160  0.00000000  0.04511280       0.006
   0.02084027  0.02084027  0.04511280       0.006
   0.04168053  0.02084027  0.04511280       0.012
   0.06252080  0.02084027  0.04511280       0.012
   0.08336107  0.02084027  0.04511280       0.012
   0.10420133  0.02084027  0.04511280       0.012
   0.12504160  0.02084027  0.04511280       0.012
   0.04168053  0.04168053  0.04511280       0.006
   0.06252080  0.04168053  0.04511280       0.012
   0.08336107  0.04168053  0.04511280       0.012
   0.10420133  0.04168053  0.04511280       0.012
   0.12504160  0.04168053  0.04511280       0.012
   0.06252080  0.06252080  0.04511280       0.006
   0.08336107  0.06252080  0.04511280       0.012
   0.10420133  0.06252080  0.04511280       0.012
   0.12504160  0.06252080  0.04511280       0.012
   0.08336107  0.08336107  0.04511280       0.006
   0.10420133  0.08336107  0.04511280       0.012
   0.12504160  0.08336107  0.04511280       0.012
   0.10420133  0.10420133  0.04511280       0.006
   0.12504160  0.10420133  0.04511280       0.012
   0.12504160  0.12504160  0.04511280       0.006
 
 k-points in reciprocal lattice and weights: pymatgen with grid density = 8800 / numb
   0.00000000  0.00000000  0.00000000       0.001
   0.07692308  0.00000000  0.00000000       0.006
   0.15384615  0.00000000  0.00000000       0.006
   0.23076923  0.00000000  0.00000000       0.006
   0.30769231  0.00000000  0.00000000       0.006
   0.38461538  0.00000000  0.00000000       0.006
   0.46153846  0.00000000  0.00000000       0.006
   0.07692308  0.07692308  0.00000000       0.006
   0.15384615  0.07692308  0.00000000       0.012
   0.23076923  0.07692308  0.00000000       0.012
   0.30769231  0.07692308  0.00000000       0.012
   0.38461538  0.07692308  0.00000000       0.012
   0.46153846  0.07692308  0.00000000       0.012
   0.15384615  0.15384615  0.00000000       0.006
   0.23076923  0.15384615  0.00000000       0.012
   0.30769231  0.15384615  0.00000000       0.012
   0.38461538  0.15384615  0.00000000       0.012
   0.46153846  0.15384615  0.00000000       0.012
   0.23076923  0.23076923  0.00000000       0.006
   0.30769231  0.23076923  0.00000000       0.012
   0.38461538  0.23076923  0.00000000       0.012
   0.46153846  0.23076923  0.00000000       0.012
   0.30769231  0.30769231  0.00000000       0.006
   0.38461538  0.30769231  0.00000000       0.012
   0.46153846  0.30769231  0.00000000       0.012
   0.38461538  0.38461538  0.00000000       0.006
   0.46153846  0.38461538  0.00000000       0.012
   0.46153846  0.46153846  0.00000000       0.006
   0.00000000  0.00000000  0.25000000       0.003
   0.07692308  0.00000000  0.25000000       0.012
   0.15384615  0.00000000  0.25000000       0.012
   0.23076923  0.00000000  0.25000000       0.012
   0.30769231  0.00000000  0.25000000       0.012
   0.38461538  0.00000000  0.25000000       0.012
   0.46153846  0.00000000  0.25000000       0.012
   0.07692308  0.07692308  0.25000000       0.012
   0.15384615  0.07692308  0.25000000       0.024
   0.23076923  0.07692308  0.25000000       0.024
   0.30769231  0.07692308  0.25000000       0.024
   0.38461538  0.07692308  0.25000000       0.024
   0.46153846  0.07692308  0.25000000       0.024
   0.15384615  0.15384615  0.25000000       0.012
   0.23076923  0.15384615  0.25000000       0.024
   0.30769231  0.15384615  0.25000000       0.024
   0.38461538  0.15384615  0.25000000       0.024
   0.46153846  0.15384615  0.25000000       0.024
   0.23076923  0.23076923  0.25000000       0.012
   0.30769231  0.23076923  0.25000000       0.024
   0.38461538  0.23076923  0.25000000       0.024
   0.46153846  0.23076923  0.25000000       0.024
   0.30769231  0.30769231  0.25000000       0.012
   0.38461538  0.30769231  0.25000000       0.024
   0.46153846  0.30769231  0.25000000       0.024
   0.38461538  0.38461538  0.25000000       0.012
   0.46153846  0.38461538  0.25000000       0.024
   0.46153846  0.46153846  0.25000000       0.012
   0.00000000  0.00000000  0.50000000       0.001
   0.07692308  0.00000000  0.50000000       0.006
   0.15384615  0.00000000  0.50000000       0.006
   0.23076923  0.00000000  0.50000000       0.006
   0.30769231  0.00000000  0.50000000       0.006
   0.38461538  0.00000000  0.50000000       0.006
   0.46153846  0.00000000  0.50000000       0.006
   0.07692308  0.07692308  0.50000000       0.006
   0.15384615  0.07692308  0.50000000       0.012
   0.23076923  0.07692308  0.50000000       0.012
   0.30769231  0.07692308  0.50000000       0.012
   0.38461538  0.07692308  0.50000000       0.012
   0.46153846  0.07692308  0.50000000       0.012
   0.15384615  0.15384615  0.50000000       0.006
   0.23076923  0.15384615  0.50000000       0.012
   0.30769231  0.15384615  0.50000000       0.012
   0.38461538  0.15384615  0.50000000       0.012
   0.46153846  0.15384615  0.50000000       0.012
   0.23076923  0.23076923  0.50000000       0.006
   0.30769231  0.23076923  0.50000000       0.012
   0.38461538  0.23076923  0.50000000       0.012
   0.46153846  0.23076923  0.50000000       0.012
   0.30769231  0.30769231  0.50000000       0.006
   0.38461538  0.30769231  0.50000000       0.012
   0.46153846  0.30769231  0.50000000       0.012
   0.38461538  0.38461538  0.50000000       0.006
   0.46153846  0.38461538  0.50000000       0.012
   0.46153846  0.46153846  0.50000000       0.006
 
 position of ions in fractional coordinates (direct lattice) 
   0.00000000  0.50000000  0.16661120
   0.00000000  0.50000000  0.50000000
   0.00000000  0.50000000  0.83338880
   0.50000000  0.50000000  0.00000000
   0.50000000  0.50000000  0.33326141
   0.50000000  0.50000000  0.66673859
   0.50000000  0.00000000  0.16661120
   0.50000000  0.00000000  0.50000000
   0.50000000  0.00000000  0.83338880
   0.00000000  0.00000000  0.00000000
   0.00000000  0.00000000  0.33332450
   0.00000000  0.00000000  0.66667550
 
 position of ions in cartesian coordinates  (Angst):
   0.00000000  1.84553969  1.84660659
   0.00000000  1.84553969  5.54166390
   0.00000000  1.84553969  9.23672121
   1.84553969  1.84553969  0.00000000
   1.84553969  1.84553969  3.69364545
   1.84553969  1.84553969  7.38968235
   1.84553969  0.00000000  1.84660659
   1.84553969  0.00000000  5.54166390
   1.84553969  0.00000000  9.23672121
   0.00000000  0.00000000  0.00000000
   0.00000000  0.00000000  3.69434475
   0.00000000  0.00000000  7.38898305
 


--------------------------------------------------------------------------------------------------------


 k-point     1 :   0.0000 0.0000 0.0000  plane waves:    4073
 k-point     2 :   0.0769 0.0000 0.0000  plane waves:    4061
 k-point     3 :   0.1538 0.0000 0.0000  plane waves:    4058
 k-point     4 :   0.2308 0.0000 0.0000  plane waves:    4046
 k-point     5 :   0.3077 0.0000 0.0000  plane waves:    4064
 k-point     6 :   0.3846 0.0000 0.0000  plane waves:    4068
 k-point     7 :   0.4615 0.0000 0.0000  plane waves:    4070
 k-point     8 :   0.0769 0.0769 0.0000  plane waves:    4061
 k-point     9 :   0.1538 0.0769 0.0000  plane waves:    4057
 k-point    10 :   0.2308 0.0769 0.0000  plane waves:    4048
 k-point    11 :   0.3077 0.0769 0.0000  plane waves:    4058
 k-point    12 :   0.3846 0.0769 0.0000  plane waves:    4060
 k-point    13 :   0.4615 0.0769 0.0000  plane waves:    4074
 k-point    14 :   0.1538 0.1538 0.0000  plane waves:    4068
 k-point    15 :   0.2308 0.1538 0.0000  plane waves:    4057
 k-point    16 :   0.3077 0.1538 0.0000  plane waves:    4059
 k-point    17 :   0.3846 0.1538 0.0000  plane waves:    4060
 k-point    18 :   0.4615 0.1538 0.0000  plane waves:    4064
 k-point    19 :   0.2308 0.2308 0.0000  plane waves:    4072
 k-point    20 :   0.3077 0.2308 0.0000  plane waves:    4080
 k-point    21 :   0.3846 0.2308 0.0000  plane waves:    4081
 k-point    22 :   0.4615 0.2308 0.0000  plane waves:    4083
 k-point    23 :   0.3077 0.3077 0.0000  plane waves:    4090
 k-point    24 :   0.3846 0.3077 0.0000  plane waves:    4082
 k-point    25 :   0.4615 0.3077 0.0000  plane waves:    4068
 k-point    26 :   0.3846 0.3846 0.0000  plane waves:    4080
 k-point    27 :   0.4615 0.3846 0.0000  plane waves:    4077
 k-point    28 :   0.4615 0.4615 0.0000  plane waves:    4102
 k-point    29 :   0.0000 0.0000 0.2500  plane waves:    4069
 k-point    30 :   0.0769 0.0000 0.2500  plane waves:    4062
 k-point    31 :   0.1538 0.0000 0.2500  plane waves:    4057
 k-point    32 :   0.2308 0.0000 0.2500  plane waves:    4057
 k-point    33 :   0.3077 0.0000 0.2500  plane waves:    4050
 k-point    34 :   0.3846 0.0000 0.2500  plane waves:    4059
 k-point    35 :   0.4615 0.0000 0.2500  plane waves:    4069
 k-point    36 :   0.0769 0.0769 0.2500  plane waves:    4059
 k-point    37 :   0.1538 0.0769 0.2500  plane waves:    4055
 k-point    38 :   0.2308 0.0769 0.2500  plane waves:    4055
 k-point    39 :   0.3077 0.0769 0.2500  plane waves:    4058
 k-point    40 :   0.3846 0.0769 0.2500  plane waves:    4065
 k-point    41 :   0.4615 0.0769 0.2500  plane waves:    4068
 k-point    42 :   0.1538 0.1538 0.2500  plane waves:    4049
 k-point    43 :   0.2308 0.1538 0.2500  plane waves:    4057
 k-point    44 :   0.3077 0.1538 0.2500  plane waves:    4059
 k-point    45 :   0.3846 0.1538 0.2500  plane waves:    4063
 k-point    46 :   0.4615 0.1538 0.2500  plane waves:    4064
 k-point    47 :   0.2308 0.2308 0.2500  plane waves:    4070
 k-point    48 :   0.3077 0.2308 0.2500  plane waves:    4071
 k-point    49 :   0.3846 0.2308 0.2500  plane waves:    4075
 k-point    50 :   0.4615 0.2308 0.2500  plane waves:    4077
 k-point    51 :   0.3077 0.3077 0.2500  plane waves:    4080
 k-point    52 :   0.3846 0.3077 0.2500  plane waves:    4081
 k-point    53 :   0.4615 0.3077 0.2500  plane waves:    4080
 k-point    54 :   0.3846 0.3846 0.2500  plane waves:    4080
 k-point    55 :   0.4615 0.3846 0.2500  plane waves:    4082
 k-point    56 :   0.4615 0.4615 0.2500  plane waves:    4073
 k-point    57 :   0.0000 0.0000 0.5000  plane waves:    4066
 k-point    58 :   0.0769 0.0000 0.5000  plane waves:    4064
 k-point    59 :   0.1538 0.0000 0.5000  plane waves:    4042
 k-point    60 :   0.2308 0.0000 0.5000  plane waves:    4058
 k-point    61 :   0.3077 0.0000 0.5000  plane waves:    4068
 k-point    62 :   0.3846 0.0000 0.5000  plane waves:    4050
 k-point    63 :   0.4615 0.0000 0.5000  plane waves:    4060
 k-point    64 :   0.0769 0.0769 0.5000  plane waves:    4060
 k-point    65 :   0.1538 0.0769 0.5000  plane waves:    4048
 k-point    66 :   0.2308 0.0769 0.5000  plane waves:    4056
 k-point    67 :   0.3077 0.0769 0.5000  plane waves:    4066
 k-point    68 :   0.3846 0.0769 0.5000  plane waves:    4060
 k-point    69 :   0.4615 0.0769 0.5000  plane waves:    4056
 k-point    70 :   0.1538 0.1538 0.5000  plane waves:    4040
 k-point    71 :   0.2308 0.1538 0.5000  plane waves:    4058
 k-point    72 :   0.3077 0.1538 0.5000  plane waves:    4068
 k-point    73 :   0.3846 0.1538 0.5000  plane waves:    4070
 k-point    74 :   0.4615 0.1538 0.5000  plane waves:    4060
 k-point    75 :   0.2308 0.2308 0.5000  plane waves:    4054
 k-point    76 :   0.3077 0.2308 0.5000  plane waves:    4068
 k-point    77 :   0.3846 0.2308 0.5000  plane waves:    4082
 k-point    78 :   0.4615 0.2308 0.5000  plane waves:    4064
 k-point    79 :   0.3077 0.3077 0.5000  plane waves:    4062
 k-point    80 :   0.3846 0.3077 0.5000  plane waves:    4066
 k-point    81 :   0.4615 0.3077 0.5000  plane waves:    4074
 k-point    82 :   0.3846 0.3846 0.5000  plane waves:    4078
 k-point    83 :   0.4615 0.3846 0.5000  plane waves:    4078
 k-point    84 :   0.4615 0.4615 0.5000  plane waves:    4088

 maximum and minimum number of plane-waves per node :      4102     4040

 maximum number of plane-waves:      4102
 maximum index in each direction: 
   IXMAX=    6   IYMAX=    6   IZMAX=   20
   IXMIN=   -7   IYMIN=   -7   IZMIN=  -21


 serial   3D FFT for wavefunctions
 parallel 3D FFT for charge:
    minimum data exchange during FFTs selected (reduces bandwidth)


 total amount of memory used by VASP MPI-rank0   279107. kBytes
=======================================================================

   base      :      30000. kBytes
   nonl-proj :     100657. kBytes
   fftplans  :        888. kBytes
   grid      :       6813. kBytes
   one-center:        373. kBytes
   wavefun   :     140376. kBytes
 
     INWAV:  cpu time      0.0000: real time      0.0000
 Broyden mixing: mesh for mixing (old mesh)
   NGX = 13   NGY = 13   NGZ = 41
  (NGX  = 56   NGY  = 56   NGZ  =168)
  gives a total of   6929 points

 initial charge density was supplied:
 charge density of overlapping atoms calculated
 number of electron     156.0000000 magnetization      24.9060000
 charge density for first step will be calculated from the start-wavefunctions


--------------------------------------------------------------------------------------------------------


 Maximum index for augmentation-charges         1049 (set IRDMAX)


--------------------------------------------------------------------------------------------------------


 First call to EWALD:  gamma=   0.333
 Maximum number of real-space cells 4x 4x 2
 Maximum number of reciprocal cells 2x 2x 5

    FEWALD:  cpu time      0.0571: real time      0.0574


--------------------------------------- Ionic step        1  -------------------------------------------




--------------------------------------- Iteration      1(   1)  ---------------------------------------


    POTLOK:  cpu time      0.0316: real time      0.0329
    SETDIJ:  cpu time      0.0154: real time      0.0165
    TRIAL :  cpu time      6.0643: real time      6.1252
    CORREC:  cpu time      0.0343: real time      0.0345
    --------------------------------------------
      LOOP:  cpu time      6.2675: real time      6.3354

 eigenvalue-minimisations  : 43072
 total energy-change (2. order) : 0.1768490E+04  (-0.9159137E+04)
 number of electron     156.0000000 magnetization      24.9060000
 augmentation part      156.0000000 magnetization      24.9060000

 Free energy of the ion-electron system (eV)
  ---------------------------------------------------
  alpha Z        PSCENC =      1127.08695075
  Ewald energy   TEWEN  =    -18289.84068053
  -Hartree energ DENC   =     -5892.15726463
  -exchange      EXHF   =         0.00000000
  -V(xc)+E(xc)   XCENC  =       658.57050392
  PAW double counting   =     20094.08386982   -20818.02224142
  entropy T*S    EENTRO =        -0.00503899
  eigenvalues    EBANDS =       584.67115858
  atomic energy  EATOM  =     24304.10294433
  ---------------------------------------------------
  free energy    TOTEN  =      1768.49020182 eV

  energy without entropy =     1768.49524081  energy(sigma->0) =     1768.49188149


--------------------------------------------------------------------------------------------------------




--------------------------------------- Iteration      1(   2)  ---------------------------------------


    TRIAL :  cpu time      5.8603: real time      5.9051
    CORREC:  cpu time      0.0025: real time      0.0025
    --------------------------------------------
      LOOP:  cpu time      5.8820: real time      5.9295

 eigenvalue-minimisations  : 43008
 total energy-change (2. order) :-0.1762070E+04  (-0.1669629E+04)
 number of electron     156.0000000 magnetization      24.9060000
 augmentation part      156.0000000 magnetization      24.9060000

 Free energy of the ion-electron system (eV)
  ---------------------------------------------------
  alpha Z        PSCENC =      1127.08695075
  Ewald energy   TEWEN  =    -18289.84068053
  -Hartree energ DENC   =     -5892.15726463
  -exchange      EXHF   =         0.00000000
  -V(xc)+E(xc)   XCENC  =       658.57050392
  PAW double counting   =     20094.08386982   -20818.02224142
  entropy T*S    EENTRO =        -0.00970851
  eigenvalues    EBANDS =     -1177.39419118
  atomic energy  EATOM  =     24304.10294433
  ---------------------------------------------------
  free energy    TOTEN  =         6.42018255 eV

  energy without entropy =        6.42989105  energy(sigma->0) =        6.42341871


--------------------------------------------------------------------------------------------------------




--------------------------------------- Iteration      1(   3)  ---------------------------------------


    TRIAL :  cpu time      6.9258: real time      6.9746
    CORREC:  cpu time      0.0024: real time      0.0024
    --------------------------------------------
      LOOP:  cpu time      6.9446: real time      6.9991

 eigenvalue-minimisations  : 50496
 total energy-change (2. order) :-0.1090255E+03  (-0.1074082E+03)
 number of electron     156.0000000 magnetization      24.9060000
 augmentation part      156.0000000 magnetization      24.9060000

 Free energy of the ion-electron system (eV)
  ---------------------------------------------------
  alpha Z        PSCENC =      1127.08695075
  Ewald energy   TEWEN  =    -18289.84068053
  -Hartree energ DENC   =     -5892.15726463
  -exchange      EXHF   =         0.00000000
  -V(xc)+E(xc)   XCENC  =       658.57050392
  PAW double counting   =     20094.08386982   -20818.02224142
  entropy T*S    EENTRO =        -0.02439424
  eigenvalues    EBANDS =     -1286.40501108
  atomic energy  EATOM  =     24304.10294433
  ---------------------------------------------------
  free energy    TOTEN  =      -102.60532309 eV

  energy without entropy =     -102.58092885  energy(sigma->0) =     -102.59719167


--------------------------------------------------------------------------------------------------------




--------------------------------------- Iteration      1(   4)  ---------------------------------------


    TRIAL :  cpu time      6.2030: real time      6.2492
    CORREC:  cpu time      0.0028: real time      0.0029
    --------------------------------------------
      LOOP:  cpu time      6.2276: real time      6.2741

 eigenvalue-minimisations  : 45952
 total energy-change (2. order) :-0.1559231E+01  (-0.1558877E+01)
 number of electron     156.0000000 magnetization      24.9060000
 augmentation part      156.0000000 magnetization      24.9060000

 Free energy of the ion-electron system (eV)
  ---------------------------------------------------
  alpha Z        PSCENC =      1127.08695075
  Ewald energy   TEWEN  =    -18289.84068053
  -Hartree energ DENC   =     -5892.15726463
  -exchange      EXHF   =         0.00000000
  -V(xc)+E(xc)   XCENC  =       658.57050392
  PAW double counting   =     20094.08386982   -20818.02224142
  entropy T*S    EENTRO =        -0.02465593
  eigenvalues    EBANDS =     -1287.96398037
  atomic energy  EATOM  =     24304.10294433
  ---------------------------------------------------
  free energy    TOTEN  =      -104.16455407 eV

  energy without entropy =     -104.13989814  energy(sigma->0) =     -104.15633543


--------------------------------------------------------------------------------------------------------




--------------------------------------- Iteration      1(   5)  ---------------------------------------


    TRIAL :  cpu time      7.3320: real time      7.3836
    CORREC:  cpu time      0.0025: real time      0.0025
    CHARGE:  cpu time      0.1755: real time      0.1774
    --------------------------------------------
      LOOP:  cpu time      7.5276: real time      7.5858

 eigenvalue-minimisations  : 52736
 total energy-change (2. order) :-0.2916660E-01  (-0.2916573E-01)
 number of electron     156.0000236 magnetization      20.3642738
 augmentation part       79.3804476 magnetization      14.5546162

 Free energy of the ion-electron system (eV)
  ---------------------------------------------------
  alpha Z        PSCENC =      1127.08695075
  Ewald energy   TEWEN  =    -18289.84068053
  -Hartree energ DENC   =     -5892.15726463
  -exchange      EXHF   =         0.00000000
  -V(xc)+E(xc)   XCENC  =       658.57050392
  PAW double counting   =     20094.08386982   -20818.02224142
  entropy T*S    EENTRO =        -0.02465753
  eigenvalues    EBANDS =     -1287.99314538
  atomic energy  EATOM  =     24304.10294433
  ---------------------------------------------------
  free energy    TOTEN  =      -104.19372068 eV

  energy without entropy =     -104.16906315  energy(sigma->0) =     -104.18550150


--------------------------------------------------------------------------------------------------------




--------------------------------------- Iteration      1(   6)  ---------------------------------------


    POTLOK:  cpu time      0.0224: real time      0.0226
    SETDIJ:  cpu time      0.0081: real time      0.0082
    TRIAL :  cpu time      2.8109: real time      2.8391
    CORREC:  cpu time      1.1700: real time      1.1813
    CHARGE:  cpu time      0.1671: real time      0.1680
    --------------------------------------------
      LOOP:  cpu time      4.1959: real time      4.2412

 eigenvalue-minimisations  :     0
 total energy-change (2. order) : 0.4591691E+02  (-0.2851475E+02)
 number of electron     156.0000248 magnetization      21.6402638
 augmentation part       83.5193959 magnetization      16.0028447

 Free energy of the ion-electron system (eV)
  ---------------------------------------------------
  alpha Z        PSCENC =      1127.08695075
  Ewald energy   TEWEN  =    -18289.84068053
  -Hartree energ DENC   =     -4809.75906065
  -exchange      EXHF   =         0.00000000
  -V(xc)+E(xc)   XCENC  =       612.83359759
  PAW double counting   =     21420.56911095   -22090.02533739
  entropy T*S    EENTRO =         0.00225764
  eigenvalues    EBANDS =     -2333.21968152
  atomic energy  EATOM  =     24304.10294433
  ---------------------------------------------------
  free energy    TOTEN  =       -58.27681401 eV

  energy without entropy =      -58.27907165  energy(sigma->0) =      -58.27756656


--------------------------------------------------------------------------------------------------------




--------------------------------------- Iteration      1(   7)  ---------------------------------------


    POTLOK:  cpu time      0.0216: real time      0.0218
    SETDIJ:  cpu time      0.0080: real time      0.0080
    TRIAL :  cpu time      2.8190: real time      2.8471
    CORREC:  cpu time      1.1094: real time      1.1211
    CHARGE:  cpu time      0.1627: real time      0.1636
    --------------------------------------------
      LOOP:  cpu time      4.1366: real time      4.1841

 eigenvalue-minimisations  :     0
 total energy-change (2. order) :-0.2876772E+02  (-0.3490307E+01)
 number of electron     156.0000249 magnetization      22.5166054
 augmentation part       84.3629178 magnetization      16.7979985

 Free energy of the ion-electron system (eV)
  ---------------------------------------------------
  alpha Z        PSCENC =      1127.08695075
  Ewald energy   TEWEN  =    -18289.84068053
  -Hartree energ DENC   =     -5391.45481640
  -exchange      EXHF   =         0.00000000
  -V(xc)+E(xc)   XCENC  =       637.17082096
  PAW double counting   =     22195.30441707   -22975.56932183
  entropy T*S    EENTRO =         0.00911528
  eigenvalues    EBANDS =     -1693.84710962
  atomic energy  EATOM  =     24304.10294433
  ---------------------------------------------------
  free energy    TOTEN  =       -87.04453763 eV

  energy without entropy =      -87.05365291  energy(sigma->0) =      -87.04757606


--------------------------------------------------------------------------------------------------------




--------------------------------------- Iteration      1(   8)  ---------------------------------------


    POTLOK:  cpu time      0.0215: real time      0.0218
    SETDIJ:  cpu time      0.0078: real time      0.0079
    TRIAL :  cpu time      2.7233: real time      2.7510
    CORREC:  cpu time      1.1009: real time      1.1131
    CHARGE:  cpu time      0.1626: real time      0.1635
    --------------------------------------------
      LOOP:  cpu time      4.0352: real time      4.0804

 eigenvalue-minimisations  :     0
 total energy-change (2. order) :-0.3491382E+01  (-0.8213889E+00)
 number of electron     156.0000249 magnetization      22.7603122
 augmentation part       84.5574809 magnetization      17.0152343

 Free energy of the ion-electron system (eV)
  ---------------------------------------------------
  alpha Z        PSCENC =      1127.08695075
  Ewald energy   TEWEN  =    -18289.84068053
  -Hartree energ DENC   =     -5485.89934090
  -exchange      EXHF   =         0.00000000
  -V(xc)+E(xc)   XCENC  =       641.90769459
  PAW double counting   =     22389.62168873   -23168.33508051
  entropy T*S    EENTRO =         0.01378342
  eigenvalues    EBANDS =     -1609.18921094
  atomic energy  EATOM  =     24304.10294433
  ---------------------------------------------------
  free energy    TOTEN  =       -90.53591920 eV

  energy without entropy =      -90.54970261  energy(sigma->0) =      -90.54051367


--------------------------------------------------------------------------------------------------------




--------------------------------------- Iteration      1(   9)  ---------------------------------------


    POTLOK:  cpu time      0.0212: real time      0.0213
    SETDIJ:  cpu time      0.0081: real time      0.0081
    TRIAL :  cpu time      2.7783: real time      2.8040
    CORREC:  cpu time      1.1117: real time      1.1225
    CHARGE:  cpu time      0.1623: real time      0.1633
    --------------------------------------------
      LOOP:  cpu time      4.0989: real time      4.1422

 eigenvalue-minimisations  :     0
 total energy-change (2. order) :-0.1051597E+01  (-0.2005210E+00)
 number of electron     156.0000249 magnetization      22.8454760
 augmentation part       84.5853978 magnetization      17.0855890

 Free energy of the ion-electron system (eV)
  ---------------------------------------------------
  alpha Z        PSCENC =      1127.08695075
  Ewald energy   TEWEN  =    -18289.84068053
  -Hartree energ DENC   =     -5506.64493461
  -exchange      EXHF   =         0.00000000
  -V(xc)+E(xc)   XCENC  =       643.02472467
  PAW double counting   =     22445.94238045   -23223.35226948
  entropy T*S    EENTRO =         0.01528553
  eigenvalues    EBANDS =     -1591.92041546
  atomic energy  EATOM  =     24304.10294433
  ---------------------------------------------------
  free energy    TOTEN  =       -91.58751646 eV

  energy without entropy =      -91.60280198  energy(sigma->0) =      -91.59261163


--------------------------------------------------------------------------------------------------------




--------------------------------------- Iteration      1(  10)  ---------------------------------------


    POTLOK:  cpu time      0.0225: real time      0.0228
    SETDIJ:  cpu time      0.0082: real time      0.0082
    TRIAL :  cpu time      2.7803: real time      2.8073
    CORREC:  cpu time      1.1062: real time      1.1177
    CHARGE:  cpu time      0.1610: real time      0.1619
    --------------------------------------------
      LOOP:  cpu time      4.0804: real time      4.2786

 eigenvalue-minimisations  :     0
 total energy-change (2. order) :-0.1859848E+00  (-0.6569482E+00)
 number of electron     156.0000248 magnetization      23.3785084
 augmentation part       84.6789755 magnetization      17.5194823

 Free energy of the ion-electron system (eV)
  ---------------------------------------------------
  alpha Z        PSCENC =      1127.08695075
  Ewald energy   TEWEN  =    -18289.84068053
  -Hartree energ DENC   =     -5509.68234986
  -exchange      EXHF   =         0.00000000
  -V(xc)+E(xc)   XCENC  =       643.20726567
  PAW double counting   =     22448.76247930   -23224.73402915
  entropy T*S    EENTRO =         0.02463695
  eigenvalues    EBANDS =     -1590.69136732
  atomic energy  EATOM  =     24304.10294433
  ---------------------------------------------------
  free energy    TOTEN  =       -91.77350128 eV

  energy without entropy =      -91.79813823  energy(sigma->0) =      -91.78171360


--------------------------------------------------------------------------------------------------------




--------------------------------------- Iteration      1(  11)  ---------------------------------------


    POTLOK:  cpu time      0.0216: real time      0.0218
    SETDIJ:  cpu time      0.0081: real time      0.0081
    TRIAL :  cpu time      2.7657: real time      2.7939
    CORREC:  cpu time      1.0978: real time      1.1100
    CHARGE:  cpu time      0.1585: real time      0.1594
    --------------------------------------------
      LOOP:  cpu time      4.0684: real time      4.1157

 eigenvalue-minimisations  :     0
 total energy-change (2. order) :-0.6591140E+00  (-0.2393308E+00)
 number of electron     156.0000248 magnetization      23.5441690
 augmentation part       84.7161231 magnetization      17.6581472

 Free energy of the ion-electron system (eV)
  ---------------------------------------------------
  alpha Z        PSCENC =      1127.08695075
  Ewald energy   TEWEN  =    -18289.84068053
  -Hartree energ DENC   =     -5521.07387421
  -exchange      EXHF   =         0.00000000
  -V(xc)+E(xc)   XCENC  =       643.94918326
  PAW double counting   =     22434.16018612   -23198.75850953
  entropy T*S    EENTRO =         0.02983042
  eigenvalues    EBANDS =     -1592.08345240
  atomic energy  EATOM  =     24304.10294433
  ---------------------------------------------------
  free energy    TOTEN  =       -92.43261525 eV

  energy without entropy =      -92.46244567  energy(sigma->0) =      -92.44255872


--------------------------------------------------------------------------------------------------------




--------------------------------------- Iteration      1(  12)  ---------------------------------------


    POTLOK:  cpu time      0.0214: real time      0.0216
    SETDIJ:  cpu time      0.0075: real time      0.0075
    TRIAL :  cpu time      2.7888: real time      2.8163
    CORREC:  cpu time      1.1106: real time      1.1230
    CHARGE:  cpu time      0.1570: real time      0.1579
    --------------------------------------------
      LOOP:  cpu time      4.1015: real time      4.1490

 eigenvalue-minimisations  :     0
 total energy-change (2. order) :-0.3721685E+00  (-0.2400269E+00)
 number of electron     156.0000248 magnetization      23.5585107
 augmentation part       84.7325236 magnetization      17.6720864

 Free energy of the ion-electron system (eV)
  ---------------------------------------------------
  alpha Z        PSCENC =      1127.08695075
  Ewald energy   TEWEN  =    -18289.84068053
  -Hartree energ DENC   =     -5525.60354811
  -exchange      EXHF   =         0.00000000
  -V(xc)+E(xc)   XCENC  =       644.23183258
  PAW double counting   =     22434.22642199   -23195.29717298
  entropy T*S    EENTRO =         0.03038703
  eigenvalues    EBANDS =     -1591.74136219
  atomic energy  EATOM  =     24304.10294433
  ---------------------------------------------------
  free energy    TOTEN  =       -92.80478375 eV

  energy without entropy =      -92.83517077  energy(sigma->0) =      -92.81491276


--------------------------------------------------------------------------------------------------------




--------------------------------------- Iteration      1(  13)  ---------------------------------------


    POTLOK:  cpu time      0.0216: real time      0.0218
    SETDIJ:  cpu time      0.0075: real time      0.0076
    TRIAL :  cpu time      2.7807: real time      2.8088
    CORREC:  cpu time      1.1404: real time      1.1524
    CHARGE:  cpu time      0.1581: real time      0.1590
    --------------------------------------------
      LOOP:  cpu time      4.1262: real time      4.1726

 eigenvalue-minimisations  :     0
 total energy-change (2. order) :-0.2421992E+00  (-0.1436263E+00)
 number of electron     156.0000249 magnetization      23.6692048
 augmentation part       84.8519169 magnetization      17.7820274

 Free energy of the ion-electron system (eV)
  ---------------------------------------------------
  alpha Z        PSCENC =      1127.08695075
  Ewald energy   TEWEN  =    -18289.84068053
  -Hartree energ DENC   =     -5528.24243292
  -exchange      EXHF   =         0.00000000
  -V(xc)+E(xc)   XCENC  =       644.34596990
  PAW double counting   =     22435.94650005   -23197.53988690
  entropy T*S    EENTRO =         0.02734094
  eigenvalues    EBANDS =     -1588.93673463
  atomic energy  EATOM  =     24304.10294433
  ---------------------------------------------------
  free energy    TOTEN  =       -93.04698291 eV

  energy without entropy =      -93.07432385  energy(sigma->0) =      -93.05609656


--------------------------------------------------------------------------------------------------------




--------------------------------------- Iteration      1(  14)  ---------------------------------------


    POTLOK:  cpu time      0.0221: real time      0.0223
    SETDIJ:  cpu time      0.0078: real time      0.0079
    TRIAL :  cpu time      2.7903: real time      2.8181
    CORREC:  cpu time      1.1823: real time      1.1945
    CHARGE:  cpu time      0.1581: real time      0.1589
    --------------------------------------------
      LOOP:  cpu time      4.1773: real time      4.2245

 eigenvalue-minimisations  :     0
 total energy-change (2. order) :-0.1436693E+00  (-0.7399225E-01)
 number of electron     156.0000249 magnetization      23.8199878
 augmentation part       84.8889074 magnetization      17.9129286

 Free energy of the ion-electron system (eV)
  ---------------------------------------------------
  alpha Z        PSCENC =      1127.08695075
  Ewald energy   TEWEN  =    -18289.84068053
  -Hartree energ DENC   =     -5548.51302933
  -exchange      EXHF   =         0.00000000
  -V(xc)+E(xc)   XCENC  =       645.18937546
  PAW double counting   =     22448.41507410   -23213.71691188
  entropy T*S    EENTRO =         0.02548586
  eigenvalues    EBANDS =     -1565.94171600
  atomic energy  EATOM  =     24304.10294433
  ---------------------------------------------------
  free energy    TOTEN  =       -93.19065217 eV

  energy without entropy =      -93.21613802  energy(sigma->0) =      -93.19914745


--------------------------------------------------------------------------------------------------------




--------------------------------------- Iteration      1(  15)  ---------------------------------------


    POTLOK:  cpu time      0.0220: real time      0.0224
    SETDIJ:  cpu time      0.0078: real time      0.0078
    TRIAL :  cpu time      2.7432: real time      2.7705
    CORREC:  cpu time      1.1067: real time      1.1189
    CHARGE:  cpu time      0.1573: real time      0.1583
    --------------------------------------------
      LOOP:  cpu time      4.0527: real time      4.1005

 eigenvalue-minimisations  :     0
 total energy-change (2. order) :-0.7367761E-01  (-0.2807564E-01)
 number of electron     156.0000249 magnetization      23.9100971
 augmentation part       84.8886382 magnetization      17.9898340

 Free energy of the ion-electron system (eV)
  ---------------------------------------------------
  alpha Z        PSCENC =      1127.08695075
  Ewald energy   TEWEN  =    -18289.84068053
  -Hartree energ DENC   =     -5552.53866566
  -exchange      EXHF   =         0.00000000
  -V(xc)+E(xc)   XCENC  =       645.45989082
  PAW double counting   =     22436.73213873   -23202.41780693
  entropy T*S    EENTRO =         0.02464789
  eigenvalues    EBANDS =     -1561.87458714
  atomic energy  EATOM  =     24304.10294433
  ---------------------------------------------------
  free energy    TOTEN  =       -93.26432977 eV

  energy without entropy =      -93.28897767  energy(sigma->0) =      -93.27254574


--------------------------------------------------------------------------------------------------------




--------------------------------------- Iteration      1(  16)  ---------------------------------------


    POTLOK:  cpu time      0.0214: real time      0.0216
    SETDIJ:  cpu time      0.0079: real time      0.0080
    TRIAL :  cpu time      2.7133: real time      2.7400
    CORREC:  cpu time      1.1046: real time      1.1161
    CHARGE:  cpu time      0.1585: real time      0.1594
    --------------------------------------------
      LOOP:  cpu time      4.0228: real time      4.0680

 eigenvalue-minimisations  :     0
 total energy-change (2. order) :-0.2737577E-01  (-0.5836169E-01)
 number of electron     156.0000248 magnetization      24.1722745
 augmentation part       84.8634479 magnetization      18.2196543

 Free energy of the ion-electron system (eV)
  ---------------------------------------------------
  alpha Z        PSCENC =      1127.08695075
  Ewald energy   TEWEN  =    -18289.84068053
  -Hartree energ DENC   =     -5550.67307084
  -exchange      EXHF   =         0.00000000
  -V(xc)+E(xc)   XCENC  =       645.46547340
  PAW double counting   =     22426.35037669   -23191.36781205
  entropy T*S    EENTRO =         0.02114542
  eigenvalues    EBANDS =     -1564.44053519
  atomic energy  EATOM  =     24304.10294433
  ---------------------------------------------------
  free energy    TOTEN  =       -93.29170555 eV

  energy without entropy =      -93.31285097  energy(sigma->0) =      -93.29875402


--------------------------------------------------------------------------------------------------------




--------------------------------------- Iteration      1(  17)  ---------------------------------------


    POTLOK:  cpu time      0.0211: real time      0.0214
    SETDIJ:  cpu time      0.0080: real time      0.0081
    TRIAL :  cpu time      2.8092: real time      2.8364
    CORREC:  cpu time      1.1131: real time      1.1249
    CHARGE:  cpu time      0.1580: real time      0.1589
    --------------------------------------------
      LOOP:  cpu time      4.1277: real time      4.1726

 eigenvalue-minimisations  :     0
 total energy-change (2. order) :-0.5815480E-01  (-0.3254131E-01)
 number of electron     156.0000248 magnetization      24.3712836
[...]
     61       9.4850      1.00001
     62       9.4866      1.00002
     63       9.7924      1.01618
     64       9.8273      1.02390
     65       9.8545      1.02992
     66       9.8565      1.03034
     67      10.0071      0.95400
     68      10.0146      0.93963
     69      10.0259      0.91545
     70      10.2784      0.04999
     71      10.2786      0.04943
     72      10.3113      0.00088
     73      10.3115      0.00075
     74      10.5189     -0.01162
     75      10.5200     -0.01158
     76      11.3681     -0.00000
     77      11.3690     -0.00000
     78      11.4983     -0.00000
     79      11.4990     -0.00000
     80      11.5270     -0.00000
     81      11.5274     -0.00000
     82      11.7393     -0.00000
     83      11.7404     -0.00000
     84      12.0031     -0.00000
     85      12.0452     -0.00000
     86      12.1659     -0.00000
     87      12.1779     -0.00000
     88      12.2320     -0.00000
     89      12.2728     -0.00000
     90      12.3286     -0.00000
     91      12.3286     -0.00000
     92      12.7847     -0.00000
     93      12.7878     -0.00000
     94      13.2252     -0.00000
     95      13.2280     -0.00000
     96      13.2411     -0.00000
     97      13.2441     -0.00000
     98      13.7511     -0.00000
     99      13.7534     -0.00000
    100      16.2565      0.00000
    101      18.1752      0.00000
    102      18.2428      0.00000
    103      18.2883      0.00000
    104      19.1216      0.00000
    105      19.1227      0.00000
    106      19.8140      0.00000
    107      19.8155      0.00000
    108      20.3632      0.00000
    109      20.3636      0.00000
    110      20.8682      0.00000
    111      20.8686      0.00000
    112      25.2771      0.00000
    113      25.2796      0.00000
    114      25.7427      0.00000
    115      25.7435      0.00000
    116      26.1021      0.00000
    117      26.1040      0.00000
    118      26.9956      0.00000
    119      26.9973      0.00000
    120      27.8601      0.00000
    121      27.8654      0.00000
    122      27.9137      0.00000
    123      28.3424      0.00000
    124      29.4480      0.00000
    125      29.4499      0.00000
    126      29.8621      0.00000
    127      29.8645      0.00000
    128      30.5656      0.00000


--------------------------------------------------------------------------------------------------------


 soft charge-density along one line, spin component           1
         0         1         2         3         4         5         6         7         8         9
 total charge-density along one line
 
 soft charge-density along one line, spin component           2
         0         1         2         3         4         5         6         7         8         9
 total charge-density along one line
 
 pseudopotential strength for first ion, spin component:           1
-44.767  -0.000  -0.000   7.531   0.000   0.000  -0.000  -0.000
 -0.000 -44.767   0.000   0.000   7.530  -0.000  -0.000   0.000
 -0.000   0.000 -44.661   0.000  -0.000   7.487   0.000  -0.000
  7.531   0.000   0.000   5.652   0.000   0.000   0.000  -0.000
  0.000   7.530  -0.000   0.000   5.652  -0.000   0.000  -0.000
  0.000  -0.000   7.487   0.000  -0.000   5.661  -0.000   0.000
 -0.000  -0.000   0.000   0.000   0.000  -0.000  -1.878   0.000
 -0.000   0.000  -0.000  -0.000  -0.000   0.000   0.000  -1.960
 -0.000  -0.000   0.000   0.000   0.000  -0.000   0.000  -0.000
 -0.000  -0.000  -0.000   0.000   0.000   0.000  -0.000   0.000
 -0.000  -0.000  -0.000   0.000   0.000   0.000  -0.000   0.000
 -0.000  -0.000   0.000   0.000   0.000  -0.000  -2.394   0.000
 -0.000   0.000  -0.000  -0.000  -0.000   0.000   0.000  -2.475
 -0.000  -0.000   0.000   0.000   0.000  -0.000   0.000  -0.000
 -0.000  -0.000  -0.000   0.000   0.000   0.000  -0.000   0.000
 -0.000  -0.000  -0.000   0.000   0.000   0.000  -0.000   0.000
 -0.000   0.000   0.000  -0.000   0.000   0.000   0.000   0.000
 -0.000   0.000   0.000  -0.000   0.000   0.000   0.000   0.000
 pseudopotential strength for first ion, spin component:           2
-42.461  -0.000  -0.000   6.559   0.000   0.000  -0.000  -0.000
 -0.000 -42.461   0.000   0.000   6.559  -0.000   0.000   0.000
 -0.000   0.000 -42.408   0.000  -0.000   6.537   0.000   0.000
  6.559   0.000   0.000   5.923   0.000   0.000   0.000   0.000
  0.000   6.559  -0.000   0.000   5.923  -0.000  -0.000  -0.000
  0.000  -0.000   6.537   0.000  -0.000   5.928  -0.000  -0.000
 -0.000   0.000   0.000   0.000  -0.000  -0.000  -0.054   0.000
 -0.000   0.000   0.000   0.000  -0.000  -0.000   0.000  -0.082
 -0.000  -0.000   0.000   0.000   0.000  -0.000   0.000  -0.000
  0.000   0.000  -0.000  -0.000   0.000   0.000  -0.000   0.000
 -0.000  -0.000  -0.000   0.000  -0.000   0.000  -0.000   0.000
  0.000   0.000   0.000   0.000  -0.000  -0.000  -0.601   0.000
 -0.000   0.000   0.000   0.000  -0.000  -0.000   0.000  -0.628
 -0.000  -0.000   0.000   0.000   0.000   0.000   0.000  -0.000
  0.000   0.000  -0.000  -0.000  -0.000   0.000  -0.000   0.000
 -0.000  -0.000  -0.000   0.000  -0.000  -0.000  -0.000   0.000
 -0.000   0.000  -0.000  -0.000  -0.000   0.000   0.000   0.000
 -0.000   0.000   0.000  -0.000   0.000  -0.000   0.000   0.000
 total augmentation occupancy for first ion, spin component:           1
  1.992   0.000   0.000  -0.025   0.000  -0.000   0.000   0.000  -0.000   0.000   0.000   0.000  -0.000   0.000   0.000  -0.000
  0.000   1.992   0.000   0.000  -0.025   0.000   0.000   0.000   0.000   0.000  -0.000   0.000   0.000  -0.000   0.000   0.000
  0.000   0.000   1.992  -0.000  -0.000  -0.025   0.000   0.000   0.000   0.000   0.000   0.000  -0.000  -0.000  -0.000   0.000
 -0.025   0.000  -0.000   0.191   0.000   0.000   0.000   0.000  -0.000   0.000   0.000   0.000  -0.001   0.000   0.000   0.000
  0.000  -0.025  -0.000   0.000   0.191   0.000   0.000   0.000   0.000   0.000  -0.000   0.000   0.000  -0.000  -0.000   0.000
 -0.000   0.000  -0.025   0.000   0.000   0.170   0.000  -0.000  -0.000   0.000  -0.000   0.000   0.000  -0.000  -0.000   0.000
  0.000   0.000   0.000   0.000   0.000   0.000   3.020   0.000   0.000   0.000   0.000  -1.758   0.000   0.000  -0.000   0.000
  0.000   0.000   0.000   0.000   0.000  -0.000   0.000   3.358  -0.000   0.000  -0.000   0.000  -2.349   0.000  -0.000   0.000
 -0.000   0.000   0.000  -0.000   0.000  -0.000   0.000  -0.000   3.459  -0.000   0.168  -0.000   0.000  -2.081   0.000  -0.090
  0.000   0.000   0.000   0.000   0.000   0.000   0.000   0.000  -0.000   3.031   0.000  -0.000   0.000  -0.000  -1.766   0.000
  0.000  -0.000   0.000   0.000  -0.000  -0.000   0.000  -0.000   0.168   0.000   3.273   0.000  -0.000  -0.090   0.000  -1.982
  0.000   0.000   0.000   0.000   0.000   0.000  -1.758   0.000  -0.000  -0.000   0.000   1.906   0.000  -0.000  -0.000   0.000
 -0.000   0.000  -0.000  -0.001   0.000   0.000   0.000  -2.349   0.000   0.000  -0.000   0.000   2.647   0.000   0.000  -0.000
  0.000  -0.000  -0.000   0.000  -0.000  -0.000   0.000   0.000  -2.081  -0.000  -0.090  -0.000   0.000   1.973   0.000   0.016
  0.000   0.000  -0.000   0.000  -0.000  -0.000  -0.000  -0.000   0.000  -1.766   0.000  -0.000   0.000   0.000   1.911   0.000
 -0.000   0.000   0.000   0.000   0.000   0.000   0.000   0.000  -0.090   0.000  -1.982   0.000  -0.000   0.016   0.000   1.956
  0.000   0.000   0.000   0.000  -0.000   0.000  -0.000  -0.000  -0.109  -0.000   0.192   0.000   0.000   0.081   0.000  -0.143
  0.000  -0.000   0.000  -0.000   0.000   0.000   0.000   0.000   0.007   0.000  -0.012   0.000   0.000  -0.005  -0.000   0.008
 total augmentation occupancy for first ion, spin component:           2
 -0.002   0.000   0.000  -0.009   0.000  -0.000   0.000  -0.000   0.000   0.000   0.000   0.000   0.000  -0.000   0.000   0.000
  0.000  -0.002   0.000  -0.000  -0.009  -0.000   0.000   0.000  -0.000   0.000   0.000   0.000  -0.000   0.000   0.000  -0.000
  0.000   0.000  -0.002   0.000   0.000  -0.010   0.000   0.000   0.000  -0.000   0.000   0.000   0.000   0.000   0.000   0.000
 -0.009  -0.000   0.000  -0.005  -0.000   0.000   0.000   0.000   0.000   0.000   0.000   0.000  -0.000   0.000   0.000  -0.000
  0.000  -0.009   0.000  -0.000  -0.005  -0.000  -0.000   0.000   0.000  -0.000  -0.000   0.000  -0.000  -0.000   0.000   0.000
 -0.000  -0.000  -0.010   0.000  -0.000  -0.011  -0.000   0.000   0.000   0.000   0.000   0.000   0.000   0.000  -0.000   0.000
  0.000   0.000   0.000   0.000  -0.000  -0.000   2.403   0.000   0.000  -0.000  -0.000  -1.052   0.000   0.000   0.000  -0.000
 -0.000   0.000   0.000   0.000   0.000   0.000   0.000   2.367  -0.000   0.000   0.000   0.000  -0.943  -0.000   0.000  -0.000
  0.000  -0.000   0.000   0.000   0.000   0.000   0.000  -0.000   2.728   0.000   0.091  -0.000   0.000  -1.154  -0.000  -0.092
  0.000   0.000  -0.000   0.000  -0.000   0.000  -0.000   0.000   0.000   2.414   0.000   0.000  -0.000   0.000  -1.058   0.000
  0.000   0.000   0.000   0.000  -0.000   0.000  -0.000   0.000   0.091   0.000   2.631  -0.000   0.000  -0.092  -0.000  -1.053
  0.000   0.000   0.000   0.000   0.000   0.000  -1.052   0.000  -0.000   0.000  -0.000   0.252  -0.000  -0.000   0.000  -0.000
  0.000  -0.000   0.000  -0.000  -0.000   0.000   0.000  -0.943   0.000  -0.000   0.000  -0.000   0.114   0.000  -0.000   0.000
 -0.000   0.000   0.000   0.000  -0.000   0.000   0.000  -0.000  -1.154   0.000  -0.092  -0.000   0.000   0.342   0.000   0.106
  0.000   0.000   0.000   0.000   0.000  -0.000   0.000   0.000  -0.000  -1.058  -0.000   0.000  -0.000   0.000   0.256  -0.000
  0.000  -0.000   0.000  -0.000   0.000   0.000  -0.000  -0.000  -0.092   0.000  -1.053  -0.000   0.000   0.106  -0.000   0.223
  0.000  -0.000   0.000  -0.000  -0.000   0.000  -0.000   0.000  -0.029  -0.000   0.055   0.000  -0.000   0.030   0.000  -0.055
  0.000   0.000   0.000   0.000  -0.000   0.000   0.000  -0.000   0.003   0.000  -0.005   0.000   0.000  -0.000   0.000   0.001


------------------------ aborting loop because EDIFF is reached ----------------------------------------





 total charge

# of ion       s       p       d       tot
------------------------------------------
    1        0.356   6.344   6.045  12.745
    2        0.356   6.344   6.045  12.745
    3        0.356   6.344   6.045  12.745
    4        0.356   6.344   6.045  12.746
    5        0.356   6.344   6.045  12.745
    6        0.356   6.344   6.045  12.745
    7        0.356   6.344   6.045  12.745
    8        0.356   6.344   6.045  12.745
    9        0.356   6.344   6.045  12.745
   10        0.779   0.738   8.057   9.573
   11        0.778   0.738   8.057   9.572
   12        0.778   0.738   8.057   9.572
--------------------------------------------------
tot          5.540  59.310  78.574 143.424



 magnetization (x)

# of ion       s       p       d       tot
------------------------------------------
    1       -0.003  -0.016   2.686   2.667
    2       -0.003  -0.016   2.687   2.668
    3       -0.003  -0.016   2.686   2.667
    4       -0.003  -0.016   2.685   2.666
    5       -0.003  -0.016   2.686   2.668
    6       -0.003  -0.016   2.686   2.668
    7       -0.003  -0.016   2.686   2.667
    8       -0.003  -0.016   2.687   2.668
    9       -0.003  -0.016   2.686   2.667
   10       -0.041  -0.100   0.441   0.300
   11       -0.041  -0.100   0.441   0.300
   12       -0.041  -0.100   0.441   0.300
--------------------------------------------------
tot         -0.146  -0.446  25.498  24.907
 
    FORLOC:  cpu time      0.0019: real time      0.0020
    FORNL :  cpu time      0.7057: real time      0.7097
    STRESS:  cpu time      4.2966: real time      4.3310
    FORCOR:  cpu time      0.0209: real time      0.0211
    OFIELD:  cpu time      0.0001: real time      0.0001

  FORCE on cell =-STRESS in cart. coord.  units (eV):
  Direction    XX          YY          ZZ          XY          YZ          ZX
  --------------------------------------------------------------------------------------
  Alpha Z  1127.08695  1127.08695  1127.08695
  Ewald   -6096.28115 -6096.28115 -6097.29732    -0.00000     0.00000     0.00000
  Hartree  1850.88413  1850.88413  1850.36721    -0.00000    -0.00000    -0.00000
  E(xc)    -945.71625  -945.71625  -945.71633    -0.00000     0.00000     0.00000
  Local    1143.13384  1143.13384  1144.44748     0.00000     0.00000    -0.00000
  n-local  -207.55120  -221.69860  -214.49757    15.52998    -0.07563    -0.06780
  augment  1437.92228  1437.92228  1437.95845    -0.00000     0.00000     0.00000
  Kinetic  1707.15227  1700.32598  1703.80343     1.18025     0.23450     0.77218
  Fock        0.00000     0.00000     0.00000     0.00000     0.00000     0.00000
  -------------------------------------------------------------------------------------
  Total       6.14403     6.14403     6.15230     0.00000     0.00000     0.00000
  in kB      65.19090    65.19090    65.27862     0.00000     0.00000     0.00000
  external pressure =       65.22 kB  Pullay stress =        0.00 kB


 VOLUME and BASIS-vectors are now :
 -----------------------------------------------------------------------------
  energy-cutoff  :      520.00
  volume of cell :      151.00
      direct lattice vectors                 reciprocal lattice vectors
     3.691079375  0.000000000  0.000000000     0.270923461  0.000000000  0.000000000
     0.000000000  3.691079375  0.000000000     0.000000000  0.270923461  0.000000000
     0.000000000  0.000000000 11.083327802     0.000000000  0.000000000  0.090225609

  length of vectors
     3.691079375  3.691079375 11.083327802     0.270923461  0.270923461  0.090225609


 FORCES acting on ions:
    Electron-Ion                     Ewald-Force                    Non-Local-Force
 -----------------------------------------------------------------------------------------------
   -.454E-13 0.105E-11 -.147E+01   0.305E-13 0.231E-13 0.148E+01   -.930E-21 0.889E-22 0.818E-02
   -.450E-13 0.111E-11 0.308E-11   0.414E-13 0.114E-13 0.568E-13   -.918E-24 0.838E-23 0.415E-23
   -.445E-13 0.821E-12 0.147E+01   0.271E-13 0.135E-13 -.148E+01   -.857E-21 -.609E-22 -.818E-02
   0.113E-11 0.791E-11 0.468E-11   -.279E-13 0.255E-13 0.000E+00   0.710E-24 0.923E-24 0.247E-23
   0.113E-11 -.431E-11 -.143E+01   0.384E-13 0.831E-14 0.143E+01   -.381E-21 0.265E-21 0.112E-01
   0.113E-11 -.498E-11 0.143E+01   -.416E-13 0.115E-13 -.143E+01   0.258E-21 0.345E-22 -.112E-01
   0.112E-11 -.691E-13 -.147E+01   -.193E-13 -.129E-13 0.148E+01   -.854E-21 0.265E-20 0.818E-02
   0.111E-11 -.628E-13 0.590E-11   -.415E-13 -.114E-13 0.568E-13   -.627E-23 0.129E-23 0.663E-23
   0.110E-11 -.586E-13 0.147E+01   -.351E-13 -.263E-13 -.148E+01   0.830E-21 0.156E-20 -.818E-02
   -.201E-13 -.555E-13 -.254E-12   -.414E-14 -.303E-13 -.114E-12   -.281E-23 -.453E-23 -.103E-23
   -.199E-13 -.544E-13 -.707E+00   -.715E-13 -.148E-13 0.706E+00   -.667E-20 -.241E-20 -.397E-03
   -.198E-13 -.569E-13 0.707E+00   0.422E-13 0.101E-13 -.706E+00   0.666E-20 0.244E-20 0.397E-03
 -----------------------------------------------------------------------------------------------
   0.656E-11 0.126E-11 0.322E-10   -.615E-13 0.760E-14 0.163E-12   -.194E-20 0.457E-20 -.173E-17
 
 
 POSITION                                       TOTAL-FORCE (eV/Angst)
 -----------------------------------------------------------------------------------
      0.00000      1.84554      1.84661         0.000000     -0.000000      0.009408
      0.00000      1.84554      5.54166        -0.000000      0.000000      0.000000
      0.00000      1.84554      9.23672        -0.000000      0.000000     -0.009408
      1.84554      1.84554      0.00000        -0.000000     -0.000000      0.000000
      1.84554      1.84554      3.69365        -0.000000      0.000000      0.005265
      1.84554      1.84554      7.38968         0.000000      0.000000     -0.005265
      1.84554      0.00000      1.84661         0.000000     -0.000000      0.009408
      1.84554      0.00000      5.54166         0.000000     -0.000000      0.000000
      1.84554      0.00000      9.23672        -0.000000     -0.000000     -0.009408
      0.00000      0.00000      0.00000        -0.000000     -0.000000      0.000000
      0.00000      0.00000      3.69434        -0.000000     -0.000000     -0.001287
      0.00000      0.00000      7.38898        -0.000000     -0.000000      0.001287
 -----------------------------------------------------------------------------------
    total drift:                                0.000000      0.000000      0.000000


--------------------------------------------------------------------------------------------------------



  FREE ENERGIE OF THE ION-ELECTRON SYSTEM (eV)
  ---------------------------------------------------
  free  energy   TOTEN  =       -93.41554809 eV

  energy  without entropy=      -93.42391209  energy(sigma->0) =      -93.41833609
 


--------------------------------------------------------------------------------------------------------


    POTLOK:  cpu time      0.0475: real time      0.0478


--------------------------------------------------------------------------------------------------------




--------------------------------------------------------------------------------------------------------


  
 reached required accuracy - stopping structural energy minimisation
     LOOP+:  cpu time    186.5665: real time    189.7324
    4ORBIT:  cpu time      0.0000: real time      0.0000



 total charge

# of ion       s       p       d       tot
------------------------------------------
    1        0.356   6.344   6.045  12.745
    2        0.356   6.344   6.045  12.745
    3        0.356   6.344   6.045  12.745
    4        0.356   6.344   6.045  12.746
    5        0.356   6.344   6.045  12.745
    6        0.356   6.344   6.045  12.745
    7        0.356   6.344   6.045  12.745
    8        0.356   6.344   6.045  12.745
    9        0.356   6.344   6.045  12.745
   10        0.779   0.738   8.057   9.573
   11        0.778   0.738   8.057   9.572
   12        0.778   0.738   8.057   9.572
--------------------------------------------------
tot          5.540  59.310  78.574 143.424



 magnetization (x)

# of ion       s       p       d       tot
------------------------------------------
    1       -0.003  -0.016   2.686   2.667
    2       -0.003  -0.016   2.687   2.668
    3       -0.003  -0.016   2.686   2.667
    4       -0.003  -0.016   2.685   2.666
    5       -0.003  -0.016   2.686   2.668
    6       -0.003  -0.016   2.686   2.668
    7       -0.003  -0.016   2.686   2.667
    8       -0.003  -0.016   2.687   2.668
    9       -0.003  -0.016   2.686   2.667
   10       -0.041  -0.100   0.441   0.300
   11       -0.041  -0.100   0.441   0.300
   12       -0.041  -0.100   0.441   0.300
--------------------------------------------------
tot         -0.146  -0.446  25.498  24.907
 

 total amount of memory used by VASP MPI-rank0   279107. kBytes
=======================================================================

   base      :      30000. kBytes
   nonl-proj :     100657. kBytes
   fftplans  :        888. kBytes
   grid      :       6813. kBytes
   one-center:        373. kBytes
   wavefun   :     140376. kBytes
 
  
  
 General timing and accounting informations for this job:
 ========================================================
  
                  Total CPU time used (sec):      205.262
                            User time (sec):      198.362
                          System time (sec):        6.901
                         Elapsed time (sec):      217.190
  
                   Maximum memory used (kb):     1198180.
                   Average memory used (kb):          N/A
  
                          Minor page faults:       176895
                          Major page faults:          152
                 Voluntary context switches:         8196
