       N       E                     dE             d eps       ncg     rms          ort
DAV:   1     0.173795445097E+04    0.17380E+04   -0.93886E+04  8064   0.251E+03
DAV:   2     0.968778990910E+01   -0.17283E+04   -0.16982E+04  8064   0.604E+02
DAV:   3    -0.102663997634E+03   -0.11235E+03   -0.11117E+03  8064   0.159E+02
DAV:   4    -0.105099595394E+03   -0.24356E+01   -0.24318E+01  8064   0.251E+01
DAV:   5    -0.105153403983E+03   -0.53809E-01   -0.53800E-01  8064   0.376E+00
SDA:   6    -0.529969090949E+02    0.52156E+02   -0.53800E-01  8064   0.441E+03 0.000E+00
CGA:   7    -0.788705303376E+02   -0.25874E+02   -0.22410E+02  8064   0.215E+03 0.783E+02
CGA:   8    -0.866409592916E+02   -0.77704E+01   -0.65264E+01  8064   0.370E+02 0.660E+02
CGA:   9    -0.902376889080E+02   -0.35967E+01   -0.36303E+01  8064   0.220E+02-0.107E+00
CGA:  10    -0.909329142454E+02   -0.69523E+00   -0.62894E+00  8064   0.122E+02 0.235E+01
CGA:  11    -0.919798891829E+02   -0.10470E+01   -0.10455E+01  8064   0.902E+01 0.155E-01
CGA:  12    -0.922441750748E+02   -0.26429E+00   -0.29157E+00  8064   0.582E+01-0.721E+00
CGA:  13    -0.925345778075E+02   -0.29040E+00   -0.29360E+00  8064   0.282E+01-0.275E-01
CGA:  14    -0.927316132641E+02   -0.19704E+00   -0.19856E+00  8064   0.671E+01-0.117E-01
CGA:  15    -0.930926778925E+02   -0.36106E+00   -0.33908E+00  8064   0.142E+01 0.526E+00
CGA:  16    -0.931423684866E+02   -0.49691E-01   -0.51689E-01  8064   0.125E+01-0.472E-01
CGA:  17    -0.932515031073E+02   -0.10913E+00   -0.10896E+00  8064   0.795E+00 0.676E-03
CGA:  18    -0.932815993028E+02   -0.30096E-01   -0.30512E-01  8064   0.727E+00-0.987E-02
CGA:  19    -0.933310353201E+02   -0.49436E-01   -0.49687E-01  8064   0.374E+00-0.175E-02
CGA:  20    -0.933476979658E+02   -0.16663E-01   -0.17017E-01  8064   0.325E+00-0.541E-02
CGA:  21    -0.933612569954E+02   -0.13559E-01   -0.13973E-01  8064   0.129E+00-0.663E-02
CGA:  22    -0.933770537519E+02   -0.15797E-01   -0.15791E-01  8064   0.370E+00 0.102E-02
CGA:  23    -0.933902462151E+02   -0.13192E-01   -0.13479E-01  8064   0.408E-01-0.524E-02
CGA:  24    -0.933935344074E+02   -0.32882E-02   -0.32967E-02  8064   0.672E-01 0.133E-03
CGA:  25    -0.933969062870E+02   -0.33719E-02   -0.34277E-02  8064   0.456E-01-0.516E-03
CGA:  26    -0.934015320519E+02   -0.46258E-02   -0.46265E-02  8064   0.260E-01 0.565E-04
CGA:  27    -0.934026752688E+02   -0.11432E-02   -0.11476E-02  8064   0.228E-01-0.120E-03
CGA:  28    -0.934046086234E+02   -0.19334E-02   -0.19353E-02  8064   0.874E-02-0.434E-04
CGA:  29    -0.934053779220E+02   -0.76930E-03   -0.76915E-03  8064   0.176E-01-0.173E-04
CGA:  30    -0.934064200626E+02   -0.10421E-02   -0.10405E-02  8064   0.951E-02-0.263E-04
CGA:  31    -0.934071616187E+02   -0.74156E-03   -0.74149E-03  8064   0.380E-02-0.161E-04
CGA:  32    -0.934073096381E+02   -0.14802E-03   -0.14802E-03  8064   0.288E-02-0.174E-04
CGA:  33    -0.934077712836E+02   -0.46165E-03   -0.46588E-03  8064   0.241E-02-0.649E-04
CGA:  34    -0.934078786871E+02   -0.10740E-03   -0.10634E-03  8064   0.168E-02-0.184E-04
CGA:  35    -0.934079714014E+02   -0.92714E-04   -0.91874E-04  8064   0.853E-03-0.192E-04
CGA:  36    -0.934080609201E+02   -0.89519E-04   -0.89703E-04  8064   0.799E-03-0.193E-04
SDA:  37    -0.934080885081E+02   -0.27588E-04   -0.27261E-04  8064   0.388E-03-0.356E-05
CGA:  38    -0.934081116876E+02   -0.23179E-04   -0.23308E-04  8064   0.407E-03 0.487E-05
CGA:  39    -0.934081378297E+02   -0.26142E-04   -0.26315E-04  8064   0.229E-03 0.701E-05
CGA:  40    -0.934081611784E+02   -0.23349E-04   -0.23305E-04  8064   0.156E-03 0.621E-05
CGA:  41    -0.934081831752E+02   -0.21997E-04   -0.21901E-04  8064   0.893E-04 0.296E-05
CGA:  42    -0.934081854119E+02   -0.22368E-05   -0.22608E-05  8064   0.228E-04 0.129E-05
CGA:  43    -0.934081911032E+02   -0.56913E-05   -0.53055E-05  8064   0.416E-04 0.354E-05
CGA:  44    -0.934081935628E+02   -0.24596E-05   -0.25088E-05  8064   0.302E-04 0.176E-05
CGA:  45    -0.934081952863E+02   -0.17235E-05   -0.17606E-05  8064   0.797E-05 0.152E-05
CGA:  46    -0.934081962857E+02   -0.99942E-06   -0.10042E-05  8064   0.183E-04 0.505E-06
   1 F= -.93408196E+02 E0= -.93411545E+02  d E =-.934082E+02  mag=     2.5718
       N       E                     dE             d eps       ncg     rms          ort
SDA:   1    -0.933901705011E+02    0.18025E-01    0.00000E+00  8064   0.894E-01 0.000E+00
CGA:   2    -0.933968113137E+02   -0.66408E-02   -0.66415E-02  8064   0.104E+00-0.603E-05
CGA:   3    -0.934011634146E+02   -0.43521E-02   -0.43507E-02  8064   0.304E-01 0.165E-04
CGA:   4    -0.934040180699E+02   -0.28547E-02   -0.28546E-02  8064   0.550E-01 0.674E-06
CGA:   5    -0.934062902931E+02   -0.22722E-02   -0.22729E-02  8064   0.204E-01-0.102E-04
CGA:   6    -0.934077521922E+02   -0.14619E-02   -0.14619E-02  8064   0.358E-02 0.266E-05
CGA:   7    -0.934081630925E+02   -0.41090E-03   -0.41091E-03  8064   0.589E-02-0.643E-06
CGA:   8    -0.934083877379E+02   -0.22465E-03   -0.22465E-03  8064   0.170E-02-0.811E-06
CGA:   9    -0.934084748614E+02   -0.87123E-04   -0.87127E-04  8064   0.865E-03-0.271E-07
CGA:  10    -0.934085159032E+02   -0.41042E-04   -0.41031E-04  8064   0.745E-03-0.380E-06
CGA:  11    -0.934085841570E+02   -0.68254E-04   -0.68258E-04  8064   0.142E-03-0.467E-06
CGA:  12    -0.934085997246E+02   -0.15568E-04   -0.15555E-04  8064   0.285E-03 0.431E-06
CGA:  13    -0.934086118958E+02   -0.12171E-04   -0.12193E-04  8064   0.115E-03 0.541E-06
CGA:  14    -0.934086191737E+02   -0.72779E-05   -0.72797E-05  8064   0.720E-04 0.148E-06
CGA:  15    -0.934086220014E+02   -0.28277E-05   -0.28245E-05  8064   0.355E-04-0.967E-07
CGA:  16    -0.934086271256E+02   -0.51241E-05   -0.51316E-05  8064   0.197E-04-0.107E-06
CGA:  17    -0.934086281089E+02   -0.98334E-06   -0.98138E-06  8064   0.175E-04-0.302E-07
   2 F= -.93408628E+02 E0= -.93411912E+02  d E =-.431823E-03  mag=     2.5658
       N       E                     dE             d eps       ncg     rms          ort
SDA:   1    -0.933007939243E+02    0.10783E+00    0.00000E+00  8064   0.515E+00 0.000E+00
CGA:   2    -0.933401386485E+02   -0.39345E-01   -0.39346E-01  8064   0.610E+00 0.256E-03
CGA:   3    -0.933658293378E+02   -0.25691E-01   -0.25678E-01  8064   0.165E+00 0.131E-03
CGA:   4    -0.933842366929E+02   -0.18407E-01   -0.18402E-01  8064   0.338E+00 0.734E-04
CGA:   5    -0.933967537906E+02   -0.12517E-01   -0.12524E-01  8064   0.106E+00-0.147E-03
CGA:   6    -0.934038789533E+02   -0.71252E-02   -0.71250E-02  8064   0.212E-01 0.222E-05
CGA:   7    -0.934063279705E+02   -0.24490E-02   -0.24487E-02  8064   0.355E-01 0.358E-05
CGA:   8    -0.934076687436E+02   -0.13408E-02   -0.13409E-02  8064   0.757E-02-0.605E-05
CGA:   9    -0.934080938123E+02   -0.42507E-03   -0.42502E-03  8064   0.546E-02-0.161E-07
CGA:  10    -0.934083549017E+02   -0.26109E-03   -0.26111E-03  8064   0.455E-02-0.207E-06
CGA:  11    -0.934087233048E+02   -0.36840E-03   -0.36840E-03  8064   0.788E-03 0.852E-06
CGA:  12    -0.934088150361E+02   -0.91731E-04   -0.91627E-04  8064   0.177E-02 0.241E-05
CGA:  13    -0.934088937447E+02   -0.78709E-04   -0.78797E-04  8064   0.543E-03 0.268E-05
CGA:  14    -0.934089254456E+02   -0.31701E-04   -0.31703E-04  8064   0.435E-03 0.233E-06
CGA:  15    -0.934089438445E+02   -0.18399E-04   -0.18386E-04  8064   0.215E-03-0.479E-06
CGA:  16    -0.934089727616E+02   -0.28917E-04   -0.28959E-04  8064   0.102E-03-0.650E-06
CGA:  17    -0.934089779069E+02   -0.51453E-05   -0.51474E-05  8064   0.966E-04 0.952E-07
CGA:  18    -0.934089840042E+02   -0.60973E-05   -0.61039E-05  8064   0.595E-04 0.590E-06
CGA:  19    -0.934089874056E+02   -0.34014E-05   -0.34063E-05  8064   0.480E-04 0.348E-06
CGA:  20    -0.934089897154E+02   -0.23098E-05   -0.23044E-05  8064   0.211E-04-0.195E-06
CGA:  21    -0.934089922755E+02   -0.25602E-05   -0.26317E-05  8064   0.130E-04-0.132E-05
CGA:  22    -0.934089927298E+02   -0.45428E-06   -0.45039E-06  8064   0.796E-05-0.833E-07
   3 F= -.93408993E+02 E0= -.93412070E+02  d E =-.796444E-03  mag=     2.5472
       N       E                     dE             d eps       ncg     rms          ort
SDA:   1    -0.934053488274E+02    0.36434E-02    0.00000E+00  8064   0.211E-01 0.000E+00
CGA:   2    -0.934062800445E+02   -0.93122E-03   -0.93125E-03  8064   0.214E-01-0.383E-05
CGA:   3    -0.934075500246E+02   -0.12700E-02   -0.12700E-02  8064   0.525E-02-0.600E-06
CGA:   4    -0.934080698260E+02   -0.51980E-03   -0.51985E-03  8064   0.109E-01-0.225E-05
CGA:   5    -0.934086566204E+02   -0.58679E-03   -0.58672E-03  8064   0.296E-02-0.484E-05
CGA:   6    -0.934088162920E+02   -0.15967E-03   -0.15967E-03  8064   0.111E-02 0.462E-06
CGA:   7    -0.934088671082E+02   -0.50816E-04   -0.50826E-04  8064   0.114E-02 0.295E-06
CGA:   8    -0.934089596232E+02   -0.92515E-04   -0.92510E-04  8064   0.148E-03 0.500E-06
CGA:   9    -0.934089723864E+02   -0.12763E-04   -0.12757E-04  8064   0.299E-03 0.329E-06
CGA:  10    -0.934089880626E+02   -0.15676E-04   -0.15677E-04  8064   0.730E-04 0.695E-07
CGA:  11    -0.934089914975E+02   -0.34350E-05   -0.34293E-05  8064   0.547E-04-0.227E-06
CGA:  12    -0.934089947377E+02   -0.32402E-05   -0.32387E-05  8064   0.389E-04-0.194E-06
CGA:  13    -0.934089985376E+02   -0.37998E-05   -0.38059E-05  8064   0.147E-04-0.141E-06
CGA:  14    -0.934089991214E+02   -0.58379E-06   -0.58422E-06  8064   0.125E-04 0.215E-07
CGA:  15    -0.934090003470E+02   -0.12256E-05   -0.12250E-05  8064   0.802E-05 0.488E-07
CGA:  16    -0.934090007519E+02   -0.40496E-06   -0.40409E-06  8064   0.567E-05-0.251E-07
   4 F= -.93409001E+02 E0= -.93412105E+02  d E =-.804466E-03  mag=     2.5497
       N       E                     dE             d eps       ncg     rms          ort
SDA:   1    -0.934021249569E+02    0.68754E-02    0.00000E+00  8064   0.271E-01 0.000E+00
CGA:   2    -0.934044552866E+02   -0.23303E-02   -0.23303E-02  8064   0.400E-01-0.208E-05
CGA:   3    -0.934059794584E+02   -0.15242E-02   -0.15240E-02  8064   0.117E-01 0.189E-05
CGA:   4    -0.934071194291E+02   -0.11400E-02   -0.11399E-02  8064   0.254E-01-0.151E-06
CGA:   5    -0.934083058368E+02   -0.11864E-02   -0.11865E-02  8064   0.494E-02 0.236E-05
CGA:   6    -0.934086565155E+02   -0.35068E-03   -0.35068E-03  8064   0.180E-02-0.442E-06
CGA:   7    -0.934088676704E+02   -0.21115E-03   -0.21124E-03  8064   0.267E-02-0.192E-05
CGA:   8    -0.934089509939E+02   -0.83323E-04   -0.83299E-04  8064   0.629E-03-0.556E-06
CGA:   9    -0.934089943067E+02   -0.43313E-04   -0.43313E-04  8064   0.583E-03-0.670E-06
CGA:  10    -0.934090263449E+02   -0.32038E-04   -0.32027E-04  8064   0.492E-03-0.868E-06
CGA:  11    -0.934090612152E+02   -0.34870E-04   -0.34870E-04  8064   0.101E-03-0.907E-07
CGA:  12    -0.934090776119E+02   -0.16397E-04   -0.16332E-04  8064   0.257E-03 0.647E-06
CGA:  13    -0.934090854653E+02   -0.78534E-05   -0.78700E-05  8064   0.429E-04 0.377E-06
CGA:  14    -0.934090890106E+02   -0.35453E-05   -0.35461E-05  8064   0.545E-04 0.103E-08
CGA:  15    -0.934090915814E+02   -0.25709E-05   -0.25649E-05  8064   0.239E-04-0.223E-06
CGA:  16    -0.934090933485E+02   -0.17670E-05   -0.17684E-05  8064   0.891E-05-0.152E-06
CGA:  17    -0.934090939486E+02   -0.60012E-06   -0.59995E-06  8064   0.126E-04 0.139E-07
   5 F= -.93409094E+02 E0= -.93412157E+02  d E =-.931967E-04  mag=     2.5467
       N       E                     dE             d eps       ncg     rms          ort
SDA:   1    -0.933977124203E+02    0.11381E-01    0.00000E+00  8064   0.496E-01 0.000E+00
CGA:   2    -0.934008487222E+02   -0.31363E-02   -0.31363E-02  8064   0.607E-01-0.316E-05
CGA:   3    -0.934041547770E+02   -0.33061E-02   -0.33060E-02  8064   0.172E-01-0.364E-06
CGA:   4    -0.934058244777E+02   -0.16697E-02   -0.16697E-02  8064   0.458E-01-0.398E-05
CGA:   5    -0.934080035053E+02   -0.21790E-02   -0.21791E-02  8064   0.492E-02 0.419E-05
CGA:   6    -0.934084225082E+02   -0.41900E-03   -0.41900E-03  8064   0.406E-02-0.766E-06
CGA:   7    -0.934087166838E+02   -0.29418E-03   -0.29418E-03  8064   0.391E-02-0.219E-05
CGA:   8    -0.934088670900E+02   -0.15041E-03   -0.15041E-03  8064   0.751E-03 0.850E-07
CGA:   9    -0.934089276705E+02   -0.60580E-04   -0.60588E-04  8064   0.164E-02-0.639E-06
CGA:  10    -0.934090166480E+02   -0.88977E-04   -0.88958E-04  8064   0.225E-03-0.144E-05
CGA:  11    -0.934090513918E+02   -0.34744E-04   -0.34645E-04  8064   0.406E-03 0.117E-05
CGA:  12    -0.934090682073E+02   -0.16816E-04   -0.16819E-04  8064   0.175E-03 0.451E-07
CGA:  13    -0.934090782080E+02   -0.10001E-04   -0.99985E-05  8064   0.934E-04-0.157E-06
CGA:  14    -0.934090830457E+02   -0.48378E-05   -0.48366E-05  8064   0.949E-04-0.516E-07
CGA:  15    -0.934090888280E+02   -0.57823E-05   -0.57816E-05  8064   0.208E-04-0.130E-06
CGA:  16    -0.934090909990E+02   -0.21710E-05   -0.21705E-05  8064   0.254E-04 0.540E-07
CGA:  17    -0.934090920572E+02   -0.10582E-05   -0.10582E-05  8064   0.115E-04-0.183E-07
CGA:  18    -0.934090927379E+02   -0.68071E-06   -0.68048E-06  8064   0.619E-05 0.327E-08
   6 F= -.93409093E+02 E0= -.93412099E+02  d E =-.919860E-04  mag=     2.5425
       N       E                     dE             d eps       ncg     rms          ort
SDA:   1    -0.934080849014E+02    0.10072E-02    0.00000E+00  8064   0.143E-01 0.000E+00
CGA:   2    -0.934084164058E+02   -0.33150E-03   -0.33144E-03  8064   0.276E-02 0.400E-05
CGA:   3    -0.934086572261E+02   -0.24082E-03   -0.24081E-03  8064   0.317E-02 0.153E-06
CGA:   4    -0.934087916832E+02   -0.13446E-03   -0.13444E-03  8064   0.168E-02-0.113E-05
CGA:   5    -0.934089299003E+02   -0.13822E-03   -0.13823E-03  8064   0.107E-02-0.959E-06
CGA:   6    -0.934090504157E+02   -0.12052E-03   -0.12055E-03  8064   0.380E-03-0.652E-06
CGA:   7    -0.934090640984E+02   -0.13683E-04   -0.13687E-04  8064   0.247E-03 0.906E-07
CGA:   8    -0.934090822792E+02   -0.18181E-04   -0.18179E-04  8064   0.169E-03 0.155E-06
CGA:   9    -0.934090924425E+02   -0.10163E-04   -0.10164E-04  8064   0.131E-03 0.223E-06
CGA:  10    -0.934090978337E+02   -0.53911E-05   -0.54010E-05  8064   0.285E-04 0.401E-06
CGA:  11    -0.934091029625E+02   -0.51288E-05   -0.51122E-05  8064   0.328E-04 0.144E-06
CGA:  12    -0.934091039821E+02   -0.10196E-05   -0.10199E-05  8064   0.152E-04 0.536E-08
CGA:  13    -0.934091054653E+02   -0.14832E-05   -0.14879E-05  8064   0.139E-04-0.118E-06
CGA:  14    -0.934091062973E+02   -0.83203E-06   -0.82960E-06  8064   0.976E-05-0.201E-06
   7 F= -.93409106E+02 E0= -.93412125E+02  d E =-.105545E-03  mag=     2.5434
       N       E                     dE             d eps       ncg     rms          ort
SDA:   1    -0.934075200793E+02    0.15854E-02    0.00000E+00  8064   0.936E-02 0.000E+00
CGA:   2    -0.934078701349E+02   -0.35006E-03   -0.35004E-03  8064   0.683E-02-0.206E-06
CGA:   3    -0.934084049317E+02   -0.53480E-03   -0.53481E-03  8064   0.360E-02-0.187E-05
CGA:   4    -0.934085582301E+02   -0.15330E-03   -0.15327E-03  8064   0.314E-02-0.193E-05
CGA:   5    -0.934089432761E+02   -0.38505E-03   -0.38518E-03  8064   0.111E-02-0.246E-05
CGA:   6    -0.934090053357E+02   -0.62060E-04   -0.62054E-04  8064   0.617E-03-0.738E-06
CGA:   7    -0.934090349602E+02   -0.29625E-04   -0.29633E-04  8064   0.549E-03 0.343E-06
CGA:   8    -0.934090757251E+02   -0.40765E-04   -0.40758E-04  8064   0.243E-03 0.118E-05
CGA:   9    -0.934090837255E+02   -0.80004E-05   -0.80033E-05  8064   0.986E-04 0.791E-07
CGA:  10    -0.934090983085E+02   -0.14583E-04   -0.14551E-04  8064   0.626E-04 0.372E-06
CGA:  11    -0.934091015611E+02   -0.32527E-05   -0.32523E-05  8064   0.563E-04-0.483E-07
CGA:  12    -0.934091045225E+02   -0.29614E-05   -0.29603E-05  8064   0.338E-04-0.539E-07
CGA:  13    -0.934091071779E+02   -0.26554E-05   -0.26560E-05  8064   0.368E-04-0.943E-07
CGA:  14    -0.934091085808E+02   -0.14029E-05   -0.13999E-05  8064   0.728E-05-0.121E-06
CGA:  15    -0.934091094998E+02   -0.91892E-06   -0.90813E-06  8064   0.807E-05 0.177E-06
   8 F= -.93409109E+02 E0= -.93412148E+02  d E =-.108748E-03  mag=     2.5450
       N       E                     dE             d eps       ncg     rms          ort
SDA:   1    -0.934089339695E+02    0.17461E-03    0.00000E+00  8064   0.878E-02 0.000E+00
CGA:   2    -0.934090903991E+02   -0.15643E-03   -0.15641E-03  8064   0.152E-03 0.766E-06
CGA:   3    -0.934090980578E+02   -0.76587E-05   -0.76618E-05  8064   0.422E-04 0.209E-06
CGA:   4    -0.934091014020E+02   -0.33442E-05   -0.33397E-05  8064   0.651E-04 0.321E-06
CGA:   5    -0.934091052426E+02   -0.38406E-05   -0.38411E-05  8064   0.170E-04 0.126E-06
CGA:   6    -0.934091084554E+02   -0.32128E-05   -0.32250E-05  8064   0.555E-05-0.126E-06
CGA:   7    -0.934091087183E+02   -0.26290E-06   -0.26217E-06  8064   0.563E-05-0.373E-07
   9 F= -.93409109E+02 E0= -.93412150E+02  d E =-.107966E-03  mag=     2.5451
       N       E                     dE             d eps       ncg     rms          ort
SDA:   1    -0.934089564640E+02    0.15199E-03    0.00000E+00  8064   0.697E-02 0.000E+00
CGA:   2    -0.934090886227E+02   -0.13216E-03   -0.13220E-03  8064   0.317E-03-0.344E-05
CGA:   3    -0.934091010350E+02   -0.12412E-04   -0.12402E-04  8064   0.438E-04-0.405E-06
CGA:   4    -0.934091030912E+02   -0.20562E-05   -0.20544E-05  8064   0.392E-04-0.154E-06
CGA:   5    -0.934091074418E+02   -0.43506E-05   -0.43840E-05  8064   0.116E-04-0.694E-06
CGA:   6    -0.934091093844E+02   -0.19426E-05   -0.19065E-05  8064   0.113E-04 0.371E-06
CGA:   7    -0.934091096998E+02   -0.31535E-06   -0.31683E-06  8064   0.263E-05 0.309E-07
  10 F= -.93409110E+02 E0= -.93412150E+02  d E =-.108948E-03  mag=     2.5451
       N       E                     dE             d eps       ncg     rms          ort
SDA:   1    -0.934088823771E+02    0.22701E-03    0.00000E+00  8064   0.122E-01 0.000E+00
CGA:   2    -0.934091039389E+02   -0.22156E-03   -0.22159E-03  8064   0.112E-03-0.319E-05
CGA:   3    -0.934091068393E+02   -0.29004E-05   -0.28954E-05  8064   0.193E-04-0.124E-06
CGA:   4    -0.934091079854E+02   -0.11461E-05   -0.11463E-05  8064   0.914E-05-0.237E-07
CGA:   5    -0.934091092146E+02   -0.12291E-05   -0.12410E-05  8064   0.385E-05-0.163E-06
CGA:   6    -0.934091096074E+02   -0.39283E-06   -0.39093E-06  8064   0.533E-05-0.100E-08
  11 F= -.93409110E+02 E0= -.93412151E+02  d E =-.108855E-03  mag=     2.5450
       N       E                     dE             d eps       ncg     rms          ort
SDA:   1    -0.934090657688E+02    0.43446E-04    0.00000E+00  8064   0.214E-02 0.000E+00
CGA:   2    -0.934091051806E+02   -0.39412E-04   -0.39411E-04  8064   0.840E-04 0.245E-06
CGA:   3    -0.934091089569E+02   -0.37762E-05   -0.37805E-05  8064   0.488E-05 0.173E-06
CGA:   4    -0.934091095409E+02   -0.58402E-06   -0.56262E-06  8064   0.347E-05 0.440E-06
  12 F= -.93409110E+02 E0= -.93412150E+02  d E =-.108789E-03  mag=     2.5451
       N       E                     dE             d eps       ncg     rms          ort
SDA:   1    -0.934089920872E+02    0.11687E-03    0.00000E+00  8064   0.560E-02 0.000E+00
CGA:   2    -0.934091088410E+02   -0.11675E-03   -0.11672E-03  8064   0.128E-04-0.143E-05
CGA:   3    -0.934091094182E+02   -0.57725E-06   -0.57373E-06  8064   0.621E-05-0.155E-06
  13 F= -.93409109E+02 E0= -.93412151E+02  d E =-.108666E-03  mag=     2.5448
       N       E                     dE             d eps       ncg     rms          ort
SDA:   1    -0.934090469887E+02    0.61852E-04    0.00000E+00  8064   0.299E-02 0.000E+00
CGA:   2    -0.934091040804E+02   -0.57092E-04   -0.57097E-04  8064   0.134E-03-0.905E-07
CGA:   3    -0.934091090361E+02   -0.49557E-05   -0.49515E-05  8064   0.143E-04-0.188E-06
CGA:   4    -0.934091094628E+02   -0.42674E-06   -0.41972E-06  8064   0.319E-05-0.234E-06
  14 F= -.93409109E+02 E0= -.93412150E+02  d E =-.108711E-03  mag=     2.5449
       N       E                     dE             d eps       ncg     rms          ort
SDA:   1    -0.934090543521E+02    0.54684E-04    0.00000E+00  8064   0.215E-02 0.000E+00
CGA:   2    -0.934091034357E+02   -0.49084E-04   -0.49111E-04  8064   0.150E-03 0.745E-06
CGA:   3    -0.934091088409E+02   -0.54052E-05   -0.54092E-05  8064   0.194E-04 0.223E-06
CGA:   4    -0.934091093303E+02   -0.48939E-06   -0.49141E-06  8064   0.409E-05 0.402E-07
  15 F= -.93409109E+02 E0= -.93412150E+02  d E =-.108578E-03  mag=     2.5448
       N       E                     dE             d eps       ncg     rms          ort
SDA:   1    -0.934051239946E+02    0.39848E-02    0.00000E+00  8064   0.173E-01 0.000E+00
CGA:   2    -0.934067707649E+02   -0.16468E-02   -0.16470E-02  8064   0.195E-01-0.606E-05
CGA:   3    -0.934073906779E+02   -0.61991E-03   -0.61987E-03  8064   0.750E-02-0.232E-05
CGA:   4    -0.934081625957E+02   -0.77192E-03   -0.77201E-03  8064   0.731E-02-0.198E-05
CGA:   5    -0.934087625794E+02   -0.59998E-03   -0.59994E-03  8064   0.497E-02 0.167E-05
CGA:   6    -0.934089204260E+02   -0.15785E-03   -0.15783E-03  8064   0.927E-03-0.631E-06
CGA:   7    -0.934090490305E+02   -0.12860E-03   -0.12849E-03  8064   0.120E-02 0.144E-05
CGA:   8    -0.934090825371E+02   -0.33507E-04   -0.33516E-04  8064   0.317E-03 0.197E-06
CGA:   9    -0.934091088765E+02   -0.26339E-04   -0.26349E-04  8064   0.187E-03-0.572E-06
CGA:  10    -0.934091312254E+02   -0.22349E-04   -0.22375E-04  8064   0.175E-03-0.464E-06
CGA:  11    -0.934091367563E+02   -0.55309E-05   -0.55208E-05  8064   0.581E-04-0.302E-06
CGA:  12    -0.934091428965E+02   -0.61402E-05   -0.61535E-05  8064   0.936E-04-0.350E-06
CGA:  13    -0.934091466437E+02   -0.37472E-05   -0.37488E-05  8064   0.399E-04 0.291E-07
CGA:  14    -0.934091490602E+02   -0.24165E-05   -0.24187E-05  8064   0.125E-04 0.157E-06
CGA:  15    -0.934091509222E+02   -0.18620E-05   -0.18479E-05  8064   0.162E-04 0.194E-06
CGA:  16    -0.934091514056E+02   -0.48343E-06   -0.48402E-06  8064   0.499E-05 0.421E-07
  16 F= -.93409151E+02 E0= -.93412183E+02  d E =-.420753E-04  mag=     2.5405
       N       E                     dE             d eps       ncg     rms          ort
SDA:   1    -0.934086788637E+02    0.47206E-03    0.00000E+00  8064   0.141E-01 0.000E+00
CGA:   2    -0.934089614056E+02   -0.28254E-03   -0.28258E-03  8064   0.831E-03-0.420E-05
CGA:   3    -0.934090187954E+02   -0.57390E-04   -0.57391E-04  8064   0.115E-02-0.418E-06
CGA:   4    -0.934090736066E+02   -0.54811E-04   -0.54815E-04  8064   0.341E-03 0.226E-06
CGA:   5    -0.934091127203E+02   -0.39114E-04   -0.39124E-04  8064   0.330E-03-0.206E-06
CGA:   6    -0.934091443504E+02   -0.31630E-04   -0.31606E-04  8064   0.128E-03 0.873E-06
CGA:   7    -0.934091478593E+02   -0.35090E-05   -0.35098E-05  8064   0.448E-04 0.380E-08
CGA:   8    -0.934091533936E+02   -0.55342E-05   -0.55391E-05  8064   0.521E-04-0.895E-07
CGA:   9    -0.934091550510E+02   -0.16574E-05   -0.16584E-05  8064   0.128E-04 0.569E-07
CGA:  10    -0.934091563620E+02   -0.13110E-05   -0.13130E-05  8064   0.101E-04-0.669E-07
CGA:  11    -0.934091572600E+02   -0.89802E-06   -0.90071E-06  8064   0.105E-04-0.141E-06
  17 F= -.93409157E+02 E0= -.93412188E+02  d E =-.479297E-04  mag=     2.5392
       N       E                     dE             d eps       ncg     rms          ort
SDA:   1    -0.934082374183E+02    0.91894E-03    0.00000E+00  8064   0.584E-02 0.000E+00
CGA:   2    -0.934084618279E+02   -0.22441E-03   -0.22442E-03  8064   0.477E-02-0.161E-05
CGA:   3    -0.934087573360E+02   -0.29551E-03   -0.29550E-03  8064   0.166E-02-0.122E-05
CGA:   4    -0.934089147898E+02   -0.15745E-03   -0.15745E-03  8064   0.157E-02 0.325E-06
CGA:   5    -0.934090264434E+02   -0.11165E-03   -0.11165E-03  8064   0.190E-02 0.688E-06
CGA:   6    -0.934091100435E+02   -0.83600E-04   -0.83598E-04  8064   0.275E-03-0.312E-06
CGA:   7    -0.934091236219E+02   -0.13578E-04   -0.13578E-04  8064   0.323E-03-0.560E-07
CGA:   8    -0.934091480624E+02   -0.24440E-04   -0.24438E-04  8064   0.814E-04 0.394E-06
CGA:   9    -0.934091544942E+02   -0.64318E-05   -0.64347E-05  8064   0.570E-04-0.303E-06
CGA:  10    -0.934091572228E+02   -0.27287E-05   -0.27283E-05  8064   0.585E-04-0.858E-07
CGA:  11    -0.934091613275E+02   -0.41047E-05   -0.41049E-05  8064   0.169E-04-0.121E-06
CGA:  12    -0.934091622920E+02   -0.96446E-06   -0.96277E-06  8064   0.193E-04-0.112E-06
CGA:  13    -0.934091637246E+02   -0.14327E-05   -0.14327E-05  8064   0.108E-04-0.557E-07
CGA:  14    -0.934091644165E+02   -0.69191E-06   -0.69302E-06  8064   0.677E-05 0.897E-07
  18 F= -.93409164E+02 E0= -.93412192E+02  d E =-.550862E-04  mag=     2.5371
       N       E                     dE             d eps       ncg     rms          ort
SDA:   1    -0.934055246689E+02    0.36391E-02    0.00000E+00  8064   0.211E-01 0.000E+00
CGA:   2    -0.934063942975E+02   -0.86963E-03   -0.86962E-03  8064   0.200E-01-0.460E-05
CGA:   3    -0.934076432828E+02   -0.12490E-02   -0.12490E-02  8064   0.493E-02-0.211E-05
CGA:   4    -0.934082481335E+02   -0.60485E-03   -0.60473E-03  8064   0.119E-01 0.147E-05
CGA:   5    -0.934087988614E+02   -0.55073E-03   -0.55074E-03  8064   0.261E-02-0.310E-07
CGA:   6    -0.934089508949E+02   -0.15203E-03   -0.15204E-03  8064   0.144E-02 0.751E-06
CGA:   7    -0.934090107494E+02   -0.59855E-04   -0.59861E-04  8064   0.109E-02 0.153E-06
CGA:   8    -0.934090987825E+02   -0.88033E-04   -0.88040E-04  8064   0.246E-03-0.472E-06
CGA:   9    -0.934091186323E+02   -0.19850E-04   -0.19850E-04  8064   0.285E-03-0.698E-07
CGA:  10    -0.934091316253E+02   -0.12993E-04   -0.12987E-04  8064   0.196E-03-0.408E-06
CGA:  11    -0.934091452770E+02   -0.13652E-04   -0.13654E-04  8064   0.810E-04-0.632E-06
CGA:  12    -0.934091484019E+02   -0.31249E-05   -0.31257E-05  8064   0.528E-04 0.333E-07
CGA:  13    -0.934091558242E+02   -0.74222E-05   -0.74162E-05  8064   0.249E-04 0.855E-07
CGA:  14    -0.934091569249E+02   -0.11007E-05   -0.11007E-05  8064   0.244E-04 0.220E-07
CGA:  15    -0.934091586910E+02   -0.17661E-05   -0.17661E-05  8064   0.120E-04 0.667E-07
CGA:  16    -0.934091594957E+02   -0.80478E-06   -0.80605E-06  8064   0.821E-05 0.118E-06
  19 F= -.93409159E+02 E0= -.93412179E+02  d E =-.501655E-04  mag=     2.5326
       N       E                     dE             d eps       ncg     rms          ort
SDA:   1    -0.934084148012E+02    0.74389E-03    0.00000E+00  8064   0.962E-02 0.000E+00
CGA:   2    -0.934086468254E+02   -0.23202E-03   -0.23198E-03  8064   0.254E-02 0.234E-05
CGA:   3    -0.934088474337E+02   -0.20061E-03   -0.20060E-03  8064   0.176E-02 0.762E-06
CGA:   4    -0.934089447976E+02   -0.97364E-04   -0.97358E-04  8064   0.144E-02-0.847E-06
CGA:   5    -0.934090313228E+02   -0.86525E-04   -0.86526E-04  8064   0.831E-03-0.173E-06
CGA:   6    -0.934091261874E+02   -0.94865E-04   -0.94884E-04  8064   0.351E-03-0.401E-06
CGA:   7    -0.934091367441E+02   -0.10557E-04   -0.10552E-04  8064   0.164E-03-0.144E-06
CGA:   8    -0.934091506644E+02   -0.13920E-04   -0.13926E-04  8064   0.941E-04-0.281E-06
CGA:   9    -0.934091574882E+02   -0.68238E-05   -0.68249E-05  8064   0.673E-04-0.392E-07
CGA:  10    -0.934091598773E+02   -0.23891E-05   -0.23938E-05  8064   0.205E-04 0.154E-06
CGA:  11    -0.934091624167E+02   -0.25395E-05   -0.25319E-05  8064   0.342E-04 0.144E-06
CGA:  12    -0.934091634682E+02   -0.10514E-05   -0.10535E-05  8064   0.756E-05 0.561E-07
CGA:  13    -0.934091643303E+02   -0.86213E-06   -0.85673E-06  8064   0.741E-05 0.126E-06
  20 F= -.93409164E+02 E0= -.93412188E+02  d E =-.550000E-04  mag=     2.5344
       N       E                     dE             d eps       ncg     rms          ort
SDA:   1    -0.934082208541E+02    0.94261E-03    0.00000E+00  8064   0.253E-01 0.000E+00
CGA:   2    -0.934087053463E+02   -0.48449E-03   -0.48458E-03  8064   0.181E-02-0.596E-05
CGA:   3    -0.934088866262E+02   -0.18128E-03   -0.18129E-03  8064   0.213E-02-0.450E-06
CGA:   4    -0.934089705563E+02   -0.83930E-04   -0.83939E-04  8064   0.839E-03 0.287E-06
CGA:   5    -0.934090661216E+02   -0.95565E-04   -0.95626E-04  8064   0.800E-03-0.130E-05
CGA:   6    -0.934091302051E+02   -0.64084E-04   -0.64083E-04  8064   0.337E-03 0.884E-07
CGA:   7    -0.934091394065E+02   -0.92014E-05   -0.91991E-05  8064   0.118E-03-0.622E-07
CGA:   8    -0.934091552569E+02   -0.15850E-04   -0.15874E-04  8064   0.837E-04-0.342E-06
CGA:   9    -0.934091583242E+02   -0.30672E-05   -0.30718E-05  8064   0.384E-04 0.131E-06
CGA:  10    -0.934091615234E+02   -0.31992E-05   -0.31968E-05  8064   0.250E-04 0.182E-06
CGA:  11    -0.934091633809E+02   -0.18575E-05   -0.18577E-05  8064   0.281E-04 0.763E-07
CGA:  12    -0.934091643175E+02   -0.93663E-06   -0.93999E-06  8064   0.689E-05 0.731E-07
CGA:  13    -0.934091653955E+02   -0.10780E-05   -0.10704E-05  8064   0.708E-05 0.101E-06
CGA:  14    -0.934091657109E+02   -0.31538E-06   -0.31555E-06  8064   0.418E-05-0.319E-08
  21 F= -.93409166E+02 E0= -.93412192E+02  d E =-.563806E-04  mag=     2.5361
