       N       E                     dE             d eps       ncg     rms          ort
DAV:   1     0.173742364703E+04    0.17374E+04   -0.93755E+04  8064   0.251E+03
DAV:   2     0.940984678434E+01   -0.17280E+04   -0.16976E+04  8064   0.603E+02
DAV:   3    -0.102744949226E+03   -0.11215E+03   -0.11096E+03  8064   0.159E+02
DAV:   4    -0.105150536606E+03   -0.24056E+01   -0.24039E+01  8064   0.251E+01
DAV:   5    -0.105203615188E+03   -0.53079E-01   -0.53075E-01  8064   0.374E+00
SDA:   6    -0.529807631859E+02    0.52223E+02   -0.53075E-01  8064   0.434E+03 0.000E+00
CGA:   7    -0.799637719130E+02   -0.26983E+02   -0.23783E+02  8064   0.203E+03 0.667E+02
CGA:   8    -0.868346289093E+02   -0.68709E+01   -0.58900E+01  8064   0.373E+02 0.539E+02
CGA:   9    -0.902507151376E+02   -0.34161E+01   -0.34401E+01  8064   0.190E+02-0.176E-01
CGA:  10    -0.910087378523E+02   -0.75802E+00   -0.72285E+00  8064   0.162E+02 0.928E+00
CGA:  11    -0.919924014303E+02   -0.98366E+00   -0.95765E+00  8064   0.512E+01 0.530E+00
CGA:  12    -0.923461320987E+02   -0.35373E+00   -0.36565E+00  8064   0.684E+01-0.105E+00
CGA:  13    -0.925649093566E+02   -0.21878E+00   -0.22700E+00  8064   0.262E+01-0.208E+00
CGA:  14    -0.929451842358E+02   -0.38027E+00   -0.38025E+00  8064   0.453E+01 0.206E-03
CGA:  15    -0.930723710346E+02   -0.12719E+00   -0.14584E+00  8064   0.190E+01-0.504E+00
CGA:  16    -0.931873672256E+02   -0.11500E+00   -0.11570E+00  8064   0.629E+00-0.415E-02
CGA:  17    -0.932899791182E+02   -0.10261E+00   -0.10271E+00  8064   0.586E+00-0.303E-02
CGA:  18    -0.933175790886E+02   -0.27600E-01   -0.28269E-01  8064   0.539E+00-0.108E-01
CGA:  19    -0.933477235305E+02   -0.30144E-01   -0.30927E-01  8064   0.158E+00-0.916E-02
CGA:  20    -0.933681576100E+02   -0.20434E-01   -0.20433E-01  8064   0.150E+00 0.388E-05
CGA:  21    -0.933831480067E+02   -0.14990E-01   -0.15042E-01  8064   0.215E+00 0.349E-03
CGA:  22    -0.933906182047E+02   -0.74702E-02   -0.77490E-02  8064   0.432E-01-0.602E-02
CGA:  23    -0.933953696750E+02   -0.47515E-02   -0.47529E-02  8064   0.635E-01 0.775E-04
CGA:  24    -0.933979436750E+02   -0.25740E-02   -0.25937E-02  8064   0.432E-01-0.343E-03
CGA:  25    -0.934026463632E+02   -0.47027E-02   -0.47093E-02  8064   0.212E-01 0.128E-03
CGA:  26    -0.934046392607E+02   -0.19929E-02   -0.19912E-02  8064   0.190E-01-0.557E-04
CGA:  27    -0.934053909806E+02   -0.75172E-03   -0.75356E-03  8064   0.120E-01-0.860E-04
CGA:  28    -0.934069508950E+02   -0.15599E-02   -0.15596E-02  8064   0.144E-01 0.678E-05
CGA:  29    -0.934075475371E+02   -0.59664E-03   -0.59657E-03  8064   0.822E-02-0.460E-05
CGA:  30    -0.934081489075E+02   -0.60137E-03   -0.60166E-03  8064   0.283E-02 0.635E-05
CGA:  31    -0.934084818569E+02   -0.33295E-03   -0.33303E-03  8064   0.428E-02-0.166E-04
CGA:  32    -0.934086539523E+02   -0.17210E-03   -0.17046E-03  8064   0.272E-02-0.181E-04
CGA:  33    -0.934089020575E+02   -0.24811E-03   -0.24700E-03  8064   0.760E-03-0.547E-04
CGA:  34    -0.934089763218E+02   -0.74264E-04   -0.74066E-04  8064   0.101E-02-0.207E-04
CGA:  35    -0.934090187068E+02   -0.42385E-04   -0.41745E-04  8064   0.620E-03-0.867E-05
CGA:  36    -0.934090740543E+02   -0.55348E-04   -0.55267E-04  8064   0.437E-03-0.412E-05
SDA:  37    -0.934090925316E+02   -0.18477E-04   -0.18526E-04  8064   0.282E-03 0.205E-05
CGA:  38    -0.934091024183E+02   -0.98867E-05   -0.99886E-05  8064   0.171E-03 0.249E-05
CGA:  39    -0.934091187733E+02   -0.16355E-04   -0.16373E-04  8064   0.202E-03 0.677E-05
CGA:  40    -0.934091315408E+02   -0.12768E-04   -0.12979E-04  8064   0.180E-03 0.677E-05
CGA:  41    -0.934091393977E+02   -0.78568E-05   -0.80763E-05  8064   0.534E-04 0.516E-05
CGA:  42    -0.934091485045E+02   -0.91068E-05   -0.87939E-05  8064   0.158E-04 0.538E-05
CGA:  43    -0.934091497019E+02   -0.11975E-05   -0.12239E-05  8064   0.332E-04 0.161E-05
CGA:  44    -0.934091523222E+02   -0.26203E-05   -0.26700E-05  8064   0.943E-05 0.292E-05
CGA:  45    -0.934091532478E+02   -0.92553E-06   -0.92814E-06  8064   0.134E-04 0.846E-06
   1 F= -.93409153E+02 E0= -.93412167E+02  d E =-.934092E+02  mag=     2.5339
