 vasp.6.4.3 19Mar24 (build Mar 26 2024 14:05:37) complex                        
  
 executed on             LinuxIFC date 2024.12.16  14:07:01
 running  128 mpi-ranks, on    1 nodes
 distrk:  each k-point on   32 cores,    4 groups
 distr:  one band on NCORE=   1 cores,   32 groups


--------------------------------------------------------------------------------------------------------


 INCAR:
   ALGO = All
   EDIFF = 1e-06
   EDIFFG = -0.01
   ENCUT = 520
   GGA = Pe
   IBRION = 2
   ISIF = 4
   ISMEAR = 1
   ISPIN = 2
   KPAR = 4
   LCHARG = True
   LORBIT = 11
   LREAL = False
   LWAVE = False
   MAGMOM = 1*-2.555 2*2.522 2*-2.584 1*2.72 1*-2.555 2*2.522 2*-0.089 1*0.234
   NELM = 200
   NSW = 100
   PREC = Accurate
   SIGMA = 0.2

 POTCAR:    PAW_PBE Fe_pv 02Aug2007               
 POTCAR:    PAW_PBE Pt 04Feb2005                  
 -----------------------------------------------------------------------------
|                                                                             |
|           W    W    AA    RRRRR   N    N  II  N    N   GGGG   !!!           |
|           W    W   A  A   R    R  NN   N  II  NN   N  G    G  !!!           |
|           W    W  A    A  R    R  N N  N  II  N N  N  G       !!!           |
|           W WW W  AAAAAA  RRRRR   N  N N  II  N  N N  G  GGG   !            |
|           WW  WW  A    A  R   R   N   NN  II  N   NN  G    G                |
|           W    W  A    A  R    R  N    N  II  N    N   GGGG   !!!           |
|                                                                             |
|     For optimal performance we recommend to set                             |
|       NCORE = 2 up to number-of-cores-per-socket                            |
|     NCORE specifies how many cores store one orbital (NPAR=cpu/NCORE).      |
|     This setting can greatly improve the performance of VASP for DFT.       |
|     The default, NCORE=1 might be grossly inefficient on modern             |
|     multi-core architectures or massively parallel machines. Do your        |
|     own testing! More info at https://www.vasp.at/wiki/index.php/NCORE      |
|     Unfortunately you need to use the default for GW and RPA                |
|     calculations (for HF NCORE is supported but not extensively tested      |
|     yet).                                                                   |
|                                                                             |
 -----------------------------------------------------------------------------

 POTCAR:    PAW_PBE Fe_pv 02Aug2007               
   SHA256 =  5d22e414b1f82158bf2c7ecb8b97b28fd0923e48cadc1c3bf74d524558f5dd32 Fe_pv/POTCAR          
   COPYR  = (c) Copyright 02Aug2007 Georg Kresse                                                    
   COPYR  = This file is part of the software VASP. Any use, copying, and all other rights are regul
   COPYR  = If you do not have a valid VASP license, you may not use, copy or distribute this file. 
   VRHFIN =Fe:  3pd7s1                                                                              
   LEXCH  = PE                                                                                      
   EATOM  =  2457.4239 eV,  180.6156 Ry                                                             
                                                                                                    
   TITEL  = PAW_PBE Fe_pv 02Aug2007                                                                 
   LULTRA =        F    use ultrasoft PP ?                                                          
   IUNSCR =        1    unscreen: 0-lin 1-nonlin 2-no                                               
   RPACOR =    1.750    partial core radius                                                         
   POMASS =   55.847; ZVAL   =   14.000    mass and valenz                                          
   RCORE  =    2.200    outmost cutoff radius                                                       
   RWIGS  =    2.200; RWIGS  =    1.164    wigner-seitz radius (au A)                               
   ENMAX  =  293.238; ENMIN  =  219.928 eV                                                          
   ICORE  =        3    local potential                                                             
   LCOR   =        T    correct aug charges                                                         
   LPAW   =        T    paw PP                                                                      
   EAUG   =  578.342                                                                                
   DEXC   =    0.000                                                                                
   RMAX   =    2.249    core radius for proj-oper                                                   
   RAUG   =    1.300    factor for augmentation sphere                                              
   RDEP   =    2.296    radius for radial grids                                                     
   RDEPT  =    1.766    core radius for aug-charge                                                  
                                                                                                    
   Atomic configuration                                                                             
    8 entries                                                                                       
     n  l   j            E        occ.                                                              
     1  0  0.50     -6993.8440   2.0000                                                             
     2  0  0.50      -814.6047   2.0000                                                             
     2  1  1.50      -693.3689   6.0000                                                             
     3  0  0.50       -89.4732   2.0000                                                             
     3  1  1.50       -55.6373   6.0000                                                             
     3  2  2.50        -3.8151   7.0000                                                             
     4  0  0.50        -4.2551   1.0000                                                             
     4  3  2.50        -1.3606   0.0000                                                             
   Description                                                                                      
     l       E           TYP  RCUT    TYP  RCUT                                                     
     1    -55.6372668     23  2.000                                                                 
     1     -5.4423304     23  2.000                                                                 
     2     -3.8151096     23  2.200                                                                 
     2     -5.1756922     23  2.200                                                                 
     0     -4.2550951     23  2.200                                                                 
     0     27.2116520     23  2.200                                                                 
     3     -1.3605826     23  2.200                                                                 
  local pseudopotential read in
  partial core-charges read in
  partial kinetic energy density read in
  atomic valenz-charges read in
  non local Contribution for L=           1  read in
    real space projection operators read in
  non local Contribution for L=           1  read in
    real space projection operators read in
  non local Contribution for L=           2  read in
    real space projection operators read in
  non local Contribution for L=           2  read in
    real space projection operators read in
  non local Contribution for L=           0  read in
    real space projection operators read in
  non local Contribution for L=           0  read in
    real space projection operators read in
    PAW grid and wavefunctions read in
 
   number of l-projection  operators is LMAX  =           6
   number of lm-projection operators is LMMAX =          18
 
 POTCAR:    PAW_PBE Pt 04Feb2005                  
   SHA256 =  3ed90460adef76debcff1cfb73ee1349b515b1a3db03439735b44de3a8db7dc8 Pt/POTCAR             
   COPYR  = (c) Copyright 04Feb2005 Georg Kresse                                                    
   COPYR  = This file is part of the software VASP. Any use, copying, and all other rights are regul
   COPYR  = If you do not have a valid VASP license, you may not use, copy or distribute this file. 
   VRHFIN =Pt: s1d9                                                                                 
   LEXCH  = PE                                                                                      
   EATOM  =   729.1176 eV,   53.5886 Ry                                                             
                                                                                                    
   TITEL  = PAW_PBE Pt 04Feb2005                                                                    
   LULTRA =        F    use ultrasoft PP ?                                                          
   IUNSCR =        1    unscreen: 0-lin 1-nonlin 2-no                                               
   RPACOR =    2.330    partial core radius                                                         
   POMASS =  195.080; ZVAL   =   10.000    mass and valenz                                          
   RCORE  =    2.600    outmost cutoff radius                                                       
   RWIGS  =    2.750; RWIGS  =    1.455    wigner-seitz radius (au A)                               
   ENMAX  =  230.283; ENMIN  =  172.712 eV                                                          
   ICORE  =        3    local potential                                                             
   LCOR   =        T    correct aug charges                                                         
   LPAW   =        T    paw PP                                                                      
   EAUG   =  358.966                                                                                
   DEXC   =    0.000                                                                                
   RMAX   =    2.658    core radius for proj-oper                                                   
   RAUG   =    1.300    factor for augmentation sphere                                              
   RDEP   =    2.761    radius for radial grids                                                     
   RDEPT  =    2.203    core radius for aug-charge                                                  
                                                                                                    
   Atomic configuration                                                                             
   16 entries                                                                                       
     n  l   j            E        occ.                                                              
     1  0  0.50    -78401.1885   2.0000                                                             
     2  0  0.50    -13770.7750   2.0000                                                             
     2  1  1.50    -11931.0468   6.0000                                                             
     3  0  0.50     -3234.7234   2.0000                                                             
     3  1  1.50     -2699.2216   6.0000                                                             
     3  2  2.50     -2119.5714  10.0000                                                             
     4  0  0.50      -695.1528   2.0000                                                             
     4  1  1.50      -519.6034   6.0000                                                             
     4  2  2.50      -306.6786  10.0000                                                             
     4  3  3.50       -70.1041  14.0000                                                             
     5  0  0.50      -101.7747   2.0000                                                             
     5  1  1.50       -55.9873   6.0000                                                             
     5  2  2.50        -6.1423   9.0000                                                             
     6  0  0.50        -5.6573   1.0000                                                             
     6  1  1.50        -6.8029   0.0000                                                             
     5  3  2.50        -1.3606   0.0000                                                             
   Description                                                                                      
     l       E           TYP  RCUT    TYP  RCUT                                                     
     2     -6.1423404     23  2.500                                                                 
     2     -7.5029230     23  2.500                                                                 
     0     -5.6573207     23  2.500                                                                 
     0      0.7416693     23  2.500                                                                 
     1     -2.7211652     23  2.600                                                                 
     1     20.4087390     23  2.600                                                                 
     3     -1.3605826     23  2.500                                                                 
  local pseudopotential read in
  partial core-charges read in
  partial kinetic energy density read in
  atomic valenz-charges read in
  non local Contribution for L=           2  read in
    real space projection operators read in
  non local Contribution for L=           2  read in
    real space projection operators read in
  non local Contribution for L=           0  read in
    real space projection operators read in
  non local Contribution for L=           0  read in
    real space projection operators read in
  non local Contribution for L=           1  read in
    real space projection operators read in
  non local Contribution for L=           1  read in
    real space projection operators read in
    PAW grid and wavefunctions read in
 
   number of l-projection  operators is LMAX  =           6
   number of lm-projection operators is LMMAX =          18
 
  PAW_PBE Fe_pv 02Aug2007               :
 energy of atom  1       EATOM=-2457.4239
 kinetic energy error for atom=    0.0062 (will be added to EATOM!!)
  PAW_PBE Pt 04Feb2005                  :
 energy of atom  2       EATOM= -729.1176
 kinetic energy error for atom=    0.0032 (will be added to EATOM!!)
 
 
 POSCAR: Fe9 Pt3
  positions in direct lattice
  velocities in cartesian coordinates


 exchange-correlation table for PE
   RHO(1)=    0.500       N(1)  =     2000
   RHO(2)=  100.500       N(2)  =     4000
 


--------------------------------------------------------------------------------------------------------


 ion  position               nearest neighbor table
   1  0.000  0.500  0.167-   4 2.59   4 2.59   5 2.59   5 2.59   7 2.62   7 2.62   7 2.62   7 2.62
                            11 2.65  11 2.65  10 2.65  10 2.65
   2  0.000  0.500  0.499-  11 2.61  11 2.61   8 2.62   8 2.62   8 2.62   8 2.62   6 2.64   6 2.64
                            12 2.64  12 2.64   5 2.68   5 2.68
   3  0.000  0.500  0.834-  10 2.61  10 2.61   9 2.62   9 2.62   9 2.62   9 2.62  12 2.64  12 2.64
                             6 2.64   6 2.64   4 2.68   4 2.68
   4  0.500  0.500  0.006-   1 2.59   7 2.59   7 2.59   1 2.59  10 2.62  10 2.62  10 2.62  10 2.62
                             9 2.68   3 2.68   9 2.68   3 2.68
   5  0.500  0.500  0.327-   1 2.59   7 2.59   7 2.59   1 2.59  11 2.62  11 2.62  11 2.62  11 2.62
                             8 2.68   2 2.68   8 2.68   2 2.68
   6  0.500  0.500  0.667-  12 2.62  12 2.62  12 2.62  12 2.62   8 2.64   2 2.64   2 2.64   8 2.64
                             9 2.64   3 2.64   9 2.64   3 2.64
   7  0.500  0.000  0.167-   4 2.59   4 2.59   5 2.59   5 2.59   1 2.62   1 2.62   1 2.62   1 2.62
                            11 2.65  11 2.65  10 2.65  10 2.65
   8  0.500  0.000  0.499-  11 2.61  11 2.61   2 2.62   2 2.62   2 2.62   2 2.62   6 2.64   6 2.64
                            12 2.64  12 2.64   5 2.68   5 2.68
   9  0.500  0.000  0.834-  10 2.61  10 2.61   3 2.62   3 2.62   3 2.62   3 2.62  12 2.64  12 2.64
                             6 2.64   6 2.64   4 2.68   4 2.68
  10  0.000  0.000  0.998-   3 2.61   9 2.61   3 2.61   9 2.61   4 2.62   4 2.62   4 2.62   4 2.62
                             1 2.65   7 2.65   7 2.65   1 2.65
  11  0.000  0.000  0.336-   2 2.61   8 2.61   2 2.61   8 2.61   5 2.62   5 2.62   5 2.62   5 2.62
                             1 2.65   7 2.65   7 2.65   1 2.65
  12  0.000  0.000  0.667-   6 2.62   6 2.62   6 2.62   6 2.62   3 2.64   9 2.64   9 2.64   3 2.64
                             2 2.64   8 2.64   8 2.64   2 2.64
 
  LATTYP: Found a simple tetragonal cell.
 ALAT       =     3.6983434870
 C/A-ratio  =     3.0443808978
  
  Lattice vectors:
  
 A1 = (   3.6983434870,   0.0000000000,   0.0000000000)
 A2 = (   0.0000000000,   3.6983434870,   0.0000000000)
 A3 = (   0.0000000000,   0.0000000000,  11.2591662654)


Analysis of symmetry for initial positions (statically):
=====================================================================
 Subroutine PRICEL returns:
 Original cell was already a primitive cell.
 

 Routine SETGRP: Setting up the symmetry group for a 
 simple tetragonal supercell.


 Subroutine GETGRP returns: Found  8 space group operations
 (whereof  8 operations were pure point group operations)
 out of a pool of 16 trial point group operations.


The static configuration has the point symmetry C_4v.


Analysis of symmetry for dynamics (positions and initial velocities):
=====================================================================
 Subroutine PRICEL returns:
 Original cell was already a primitive cell.
 

 Routine SETGRP: Setting up the symmetry group for a 
 simple tetragonal supercell.


 Subroutine GETGRP returns: Found  8 space group operations
 (whereof  8 operations were pure point group operations)
 out of a pool of 16 trial point group operations.


The dynamic configuration has the point symmetry C_4v.


Analysis of structural, dynamic, and magnetic symmetry:
=====================================================================
 Subroutine PRICEL returns:
 Original cell was already a primitive cell.
 

 Routine SETGRP: Setting up the symmetry group for a 
 simple tetragonal supercell.


 Subroutine GETGRP returns: Found  8 space group operations
 (whereof  8 operations were pure point group operations)
 out of a pool of 16 trial point group operations.


The overall configuration has the point symmetry C_4v.


 Subroutine INISYM returns: Found  8 space group operations
 (whereof  8 operations are pure point group operations),
 and found     1 'primitive' translations


----------------------------------------------------------------------------------------

                                     Primitive cell                                     

  volume of cell :     154.0000

  direct lattice vectors                    reciprocal lattice vectors
     3.698343487  0.000000000  0.000000000     0.270391326  0.000000000  0.000000000
     0.000000000  3.698343487  0.000000000     0.000000000  0.270391326  0.000000000
     0.000000000  0.000000000 11.259166265     0.000000000  0.000000000  0.088816523

  length of vectors
     3.698343487  3.698343487 11.259166265     0.270391326  0.270391326  0.088816523

  position of ions in fractional coordinates (direct lattice)
     0.000000000  0.500000000  0.166657580
     0.000000000  0.500000000  0.499460229
     0.000000000  0.500000000  0.833881660
     0.500000000  0.500000000  0.006005786
     0.500000000  0.500000000  0.327382117
     0.500000000  0.500000000  0.666631806
     0.500000000  0.000000000  0.166657580
     0.500000000  0.000000000  0.499460229
     0.500000000  0.000000000  0.833881660
     0.000000000  0.000000000  0.997651930
     0.000000000  0.000000000  0.335642244
     0.000000000  0.000000000  0.666687179

  ion indices of the primitive-cell ions
   primitive index   ion index
                 1           1
                 2           2
                 3           3
                 4           4
                 5           5
                 6           6
                 7           7
                 8           8
                 9           9
                10          10
                11          11
                12          12

----------------------------------------------------------------------------------------

 
 
 KPOINTS: pymatgen with grid density = 8800 / numb

Automatic generation of k-mesh.
 Grid dimensions read from file:
 generate k-points for:   13   13    4

 Generating k-lattice:

  Cartesian coordinates                     Fractional coordinates (reciprocal lattice)
     0.020799333  0.000000000  0.000000000     0.076923077  0.000000000  0.000000000
     0.000000000  0.020799333  0.000000000     0.000000000  0.076923077  0.000000000
     0.000000000  0.000000000  0.022204131     0.000000000  0.000000000  0.250000000

  Length of vectors
     0.020799333  0.020799333  0.022204131

  Shift w.r.t. Gamma in fractional coordinates (k-lattice)
     0.000000000  0.000000000  0.000000000

 
 Subroutine IBZKPT returns following result:
 ===========================================
 
 Found     84 irreducible k-points:
 
 Following reciprocal coordinates:
            Coordinates               Weight
  0.000000  0.000000  0.000000      1.000000
  0.076923  0.000000  0.000000      4.000000
  0.153846  0.000000  0.000000      4.000000
  0.230769  0.000000  0.000000      4.000000
  0.307692  0.000000  0.000000      4.000000
  0.384615  0.000000  0.000000      4.000000
  0.461538  0.000000  0.000000      4.000000
  0.076923  0.076923  0.000000      4.000000
  0.153846  0.076923  0.000000      8.000000
  0.230769  0.076923  0.000000      8.000000
  0.307692  0.076923  0.000000      8.000000
  0.384615  0.076923  0.000000      8.000000
  0.461538  0.076923  0.000000      8.000000
  0.153846  0.153846  0.000000      4.000000
  0.230769  0.153846  0.000000      8.000000
  0.307692  0.153846  0.000000      8.000000
  0.384615  0.153846  0.000000      8.000000
  0.461538  0.153846  0.000000      8.000000
  0.230769  0.230769  0.000000      4.000000
  0.307692  0.230769  0.000000      8.000000
  0.384615  0.230769  0.000000      8.000000
  0.461538  0.230769  0.000000      8.000000
  0.307692  0.307692  0.000000      4.000000
  0.384615  0.307692  0.000000      8.000000
  0.461538  0.307692  0.000000      8.000000
  0.384615  0.384615  0.000000      4.000000
  0.461538  0.384615  0.000000      8.000000
  0.461538  0.461538  0.000000      4.000000
  0.000000  0.000000  0.250000      2.000000
  0.076923  0.000000  0.250000      8.000000
  0.153846  0.000000  0.250000      8.000000
  0.230769  0.000000  0.250000      8.000000
  0.307692  0.000000  0.250000      8.000000
  0.384615  0.000000  0.250000      8.000000
  0.461538  0.000000  0.250000      8.000000
  0.076923  0.076923  0.250000      8.000000
  0.153846  0.076923  0.250000     16.000000
  0.230769  0.076923  0.250000     16.000000
  0.307692  0.076923  0.250000     16.000000
  0.384615  0.076923  0.250000     16.000000
  0.461538  0.076923  0.250000     16.000000
  0.153846  0.153846  0.250000      8.000000
  0.230769  0.153846  0.250000     16.000000
  0.307692  0.153846  0.250000     16.000000
  0.384615  0.153846  0.250000     16.000000
  0.461538  0.153846  0.250000     16.000000
  0.230769  0.230769  0.250000      8.000000
  0.307692  0.230769  0.250000     16.000000
  0.384615  0.230769  0.250000     16.000000
  0.461538  0.230769  0.250000     16.000000
  0.307692  0.307692  0.250000      8.000000
  0.384615  0.307692  0.250000     16.000000
  0.461538  0.307692  0.250000     16.000000
  0.384615  0.384615  0.250000      8.000000
  0.461538  0.384615  0.250000     16.000000
  0.461538  0.461538  0.250000      8.000000
  0.000000  0.000000  0.500000      1.000000
  0.076923  0.000000  0.500000      4.000000
  0.153846  0.000000  0.500000      4.000000
  0.230769  0.000000  0.500000      4.000000
  0.307692  0.000000  0.500000      4.000000
  0.384615  0.000000  0.500000      4.000000
  0.461538  0.000000  0.500000      4.000000
  0.076923  0.076923  0.500000      4.000000
  0.153846  0.076923  0.500000      8.000000
  0.230769  0.076923  0.500000      8.000000
  0.307692  0.076923  0.500000      8.000000
  0.384615  0.076923  0.500000      8.000000
  0.461538  0.076923  0.500000      8.000000
  0.153846  0.153846  0.500000      4.000000
  0.230769  0.153846  0.500000      8.000000
  0.307692  0.153846  0.500000      8.000000
  0.384615  0.153846  0.500000      8.000000
  0.461538  0.153846  0.500000      8.000000
  0.230769  0.230769  0.500000      4.000000
  0.307692  0.230769  0.500000      8.000000
  0.384615  0.230769  0.500000      8.000000
  0.461538  0.230769  0.500000      8.000000
  0.307692  0.307692  0.500000      4.000000
  0.384615  0.307692  0.500000      8.000000
  0.461538  0.307692  0.500000      8.000000
  0.384615  0.384615  0.500000      4.000000
  0.461538  0.384615  0.500000      8.000000
  0.461538  0.461538  0.500000      4.000000
 
 Following cartesian coordinates:
            Coordinates               Weight
  0.000000  0.000000  0.000000      1.000000
  0.020799  0.000000  0.000000      4.000000
  0.041599  0.000000  0.000000      4.000000
  0.062398  0.000000  0.000000      4.000000
  0.083197  0.000000  0.000000      4.000000
  0.103997  0.000000  0.000000      4.000000
  0.124796  0.000000  0.000000      4.000000
  0.020799  0.020799  0.000000      4.000000
  0.041599  0.020799  0.000000      8.000000
  0.062398  0.020799  0.000000      8.000000
  0.083197  0.020799  0.000000      8.000000
  0.103997  0.020799  0.000000      8.000000
  0.124796  0.020799  0.000000      8.000000
  0.041599  0.041599  0.000000      4.000000
  0.062398  0.041599  0.000000      8.000000
  0.083197  0.041599  0.000000      8.000000
  0.103997  0.041599  0.000000      8.000000
  0.124796  0.041599  0.000000      8.000000
  0.062398  0.062398  0.000000      4.000000
  0.083197  0.062398  0.000000      8.000000
  0.103997  0.062398  0.000000      8.000000
  0.124796  0.062398  0.000000      8.000000
  0.083197  0.083197  0.000000      4.000000
  0.103997  0.083197  0.000000      8.000000
  0.124796  0.083197  0.000000      8.000000
  0.103997  0.103997  0.000000      4.000000
  0.124796  0.103997  0.000000      8.000000
  0.124796  0.124796  0.000000      4.000000
  0.000000  0.000000  0.022204      2.000000
  0.020799  0.000000  0.022204      8.000000
  0.041599  0.000000  0.022204      8.000000
  0.062398  0.000000  0.022204      8.000000
  0.083197  0.000000  0.022204      8.000000
  0.103997  0.000000  0.022204      8.000000
  0.124796  0.000000  0.022204      8.000000
  0.020799  0.020799  0.022204      8.000000
  0.041599  0.020799  0.022204     16.000000
  0.062398  0.020799  0.022204     16.000000
  0.083197  0.020799  0.022204     16.000000
  0.103997  0.020799  0.022204     16.000000
  0.124796  0.020799  0.022204     16.000000
  0.041599  0.041599  0.022204      8.000000
  0.062398  0.041599  0.022204     16.000000
  0.083197  0.041599  0.022204     16.000000
  0.103997  0.041599  0.022204     16.000000
  0.124796  0.041599  0.022204     16.000000
  0.062398  0.062398  0.022204      8.000000
  0.083197  0.062398  0.022204     16.000000
  0.103997  0.062398  0.022204     16.000000
  0.124796  0.062398  0.022204     16.000000
  0.083197  0.083197  0.022204      8.000000
  0.103997  0.083197  0.022204     16.000000
  0.124796  0.083197  0.022204     16.000000
  0.103997  0.103997  0.022204      8.000000
  0.124796  0.103997  0.022204     16.000000
  0.124796  0.124796  0.022204      8.000000
  0.000000  0.000000  0.044408      1.000000
  0.020799  0.000000  0.044408      4.000000
  0.041599  0.000000  0.044408      4.000000
  0.062398  0.000000  0.044408      4.000000
  0.083197  0.000000  0.044408      4.000000
  0.103997  0.000000  0.044408      4.000000
  0.124796  0.000000  0.044408      4.000000
  0.020799  0.020799  0.044408      4.000000
  0.041599  0.020799  0.044408      8.000000
  0.062398  0.020799  0.044408      8.000000
  0.083197  0.020799  0.044408      8.000000
  0.103997  0.020799  0.044408      8.000000
  0.124796  0.020799  0.044408      8.000000
  0.041599  0.041599  0.044408      4.000000
  0.062398  0.041599  0.044408      8.000000
  0.083197  0.041599  0.044408      8.000000
  0.103997  0.041599  0.044408      8.000000
  0.124796  0.041599  0.044408      8.000000
  0.062398  0.062398  0.044408      4.000000
  0.083197  0.062398  0.044408      8.000000
  0.103997  0.062398  0.044408      8.000000
  0.124796  0.062398  0.044408      8.000000
  0.083197  0.083197  0.044408      4.000000
  0.103997  0.083197  0.044408      8.000000
  0.124796  0.083197  0.044408      8.000000
  0.103997  0.103997  0.044408      4.000000
  0.124796  0.103997  0.044408      8.000000
  0.124796  0.124796  0.044408      4.000000
 


--------------------------------------------------------------------------------------------------------




 Dimension of arrays:
   k-points           NKPTS =     84   k-points in BZ     NKDIM =     84   number of bands    NBANDS=     96
   number of dos      NEDOS =    301   number of ions     NIONS =     12
   non local maximal  LDIM  =      6   non local SUM 2l+1 LMDIM =     18
   total plane-waves  NPLWV =  65856
   max r-space proj   IRMAX =      1   max aug-charges    IRDMAX=  26097
   dimension x,y,z NGX =    28 NGY =   28 NGZ =   84
   dimension x,y,z NGXF=    56 NGYF=   56 NGZF=  168
   support grid    NGXF=    56 NGYF=   56 NGZF=  168
   ions per type =               9   3
   NGX,Y,Z   is equivalent  to a cutoff of  12.59, 12.59, 12.40 a.u.
   NGXF,Y,Z  is equivalent  to a cutoff of  25.17, 25.17, 24.81 a.u.

 SYSTEM =  unknown system                          
 POSCAR =  Fe9 Pt3                                 

 Startparameter for this run:
   NWRITE =      2    write-flag & timer
   PREC   = accura    normal or accurate (medium, high low for compatibility)
   ISTART =      0    job   : 0-new  1-cont  2-samecut
   ICHARG =      2    charge: 1-file 2-atom 10-const
   ISPIN  =      2    spin polarized calculation?
   LNONCOLLINEAR =      F non collinear calculations
   LSORBIT =      F    spin-orbit coupling
   INIWAV =      1    electr: 0-lowe 1-rand  2-diag
   LASPH  =      F    aspherical Exc in radial PAW
 Electronic Relaxation 1
   ENCUT  =  520.0 eV  38.22 Ry    6.18 a.u.   6.88  6.88 20.93*2*pi/ulx,y,z
   ENINI  =  520.0     initial cutoff
   ENAUG  =  578.3 eV  augmentation charge cutoff
   NELM   =    200;   NELMIN=  2; NELMDL=  0     # of ELM steps 
   EDIFF  = 0.1E-05   stopping-criterion for ELM
   LREAL  =      F    real-space projection
   NLSPLINE    = F    spline interpolate recip. space projectors
   LCOMPAT=      F    compatible to vasp.4.4
   GGA_COMPAT  = T    GGA compatible to vasp.4.4-vasp.4.6
   LMAXPAW     = -100 max onsite density
   LMAXMIX     =    2 max onsite mixed and CHGCAR
   VOSKOWN=      0    Vosko Wilk Nusair interpolation
   ROPT   =    0.00000   0.00000
 Ionic relaxation
   EDIFFG = -.1E-01   stopping-criterion for IOM
   NSW    =    100    number of steps for IOM
   NBLOCK =      1;   KBLOCK =    100    inner block; outer block 
   IBRION =      2    ionic relax: 0-MD 1-quasi-New 2-CG
   NFREE  =      1    steps in history (QN), initial steepest desc. (CG)
   ISIF   =      4    stress and relaxation
   IWAVPR =     11    prediction:  0-non 1-charg 2-wave 3-comb
   ISYM   =      2    0-nonsym 1-usesym 2-fastsym
   LCORR  =      T    Harris-Foulkes like correction to forces

   POTIM  = 0.5000    time-step for ionic-motion
   TEIN   =    0.0    initial temperature
   TEBEG  =    0.0;   TEEND  =   0.0 temperature during run
   SMASS  =  -3.00    Nose mass-parameter (am)
   estimated Nose-frequenzy (Omega)   =  0.10E-29 period in steps = 0.13E+47 mass=  -0.313E-27a.u.
   SCALEE = 1.0000    scale energy and forces
   NPACO  =    256;   APACO  = 10.0  distance and # of slots for P.C.
   PSTRESS=    0.0 pullay stress

  Mass of Ions in am
   POMASS =  55.85195.08
  Ionic Valenz
   ZVAL   =  14.00 10.00
  Atomic Wigner-Seitz radii
   RWIGS  =  -1.00 -1.00
  virtual crystal weights 
   VCA    =   1.00  1.00
   NELECT =     156.0000    total number of electrons
   NUPDOWN=      -1.0000    fix difference up-down

 DOS related values:
   EMIN   =  10.00;   EMAX   =-10.00  energy-range for DOS
   EFERMI =   0.00;   METHOD = LEGACY      
   ISMEAR =     1;   SIGMA  =   0.20  broadening in eV -4-tet -1-fermi 0-gaus

 Electronic relaxation 2 (details)
   IALGO  =     58    algorithm
   LDIAG  =      T    sub-space diagonalisation (order eigenvalues)
   LSUBROT=      F    optimize rotation matrix (better conditioning)
   TURBO    =      0    0=normal 1=particle mesh
   IRESTART =      0    0=no restart 2=restart with 2 vectors
   NREBOOT  =      0    no. of reboots
   NMIN     =      0    reboot dimension
   EREF     =   0.00    reference energy to select bands
   IMIX   =      4    mixing-type and parameters
     AMIX     =   0.40;   BMIX     =  1.00
     AMIX_MAG =   1.60;   BMIX_MAG =  1.00
     AMIN     =   0.10
     WC   =   100.;   INIMIX=   1;  MIXPRE=   1;  MAXMIX= -45

 Intra band minimization:
   WEIMIN = 0.0010     energy-eigenvalue tresh-hold
   EBREAK =  0.26E-08  absolut break condition
   DEPER  =   0.30     relativ break condition  

   TIME   =   0.40     timestep for ELM

  volume/ion in A,a.u.               =      12.83        86.60
  Fermi-wavevector in a.u.,A,eV,Ry     =   1.644155  3.107003 36.779896  2.703246
  Thomas-Fermi vector in A             =   2.734169
 
 Write flags
   LWAVE        =      F    write WAVECAR
   LDOWNSAMPLE  =      F    k-point downsampling of WAVECAR
   LCHARG       =      T    write CHGCAR
   LVTOT        =      F    write LOCPOT, total local potential
   LVHAR        =      F    write LOCPOT, Hartree potential only
   WRT_POTENTIAL= false  ! write potential to hdf5 file
   LELF         =      F    write electronic localiz. function (ELF)
   LORBIT       =     11    0 simple, 1 ext, 2 COOP (PROOUT), +10 PAW based schemes


 Dipole corrections
   LMONO      =      F    monopole corrections only (constant potential shift)
   LDIPOL     =      F    correct potential (dipole corrections)
   IDIPOL     =      0    1-x, 2-y, 3-z, 4-all directions 
   EPSILON    =  1.0000000 bulk dielectric constant
   LVACPOTAV  =      F  vacuum potentials using an averaging scheme for the charge density
   VACPOTFLAT =  0.1000000 required flatness to determine vacuum potential
 Exchange correlation treatment:
   GGA     = PE    functional components
   XC_C    = 1    coefficients multiplying the functional components
   LIBXC   =     F    Libxc                    
   VOSKOWN =     0    Vosko Wilk Nusair interpolation
   LHFCALC =     F    Hartree Fock is set to
   LHFONE  =     F    Hartree Fock one center treatment
   AEXX    =    0.0000 exact exchange contribution

 Parameters of functionals:
   PE:
     No parameter
 
 Van der Waals corrections
   IVDW    =     0    specifies the selected vdW correction

 Linear response parameters
   LEPSILON=     F    determine dielectric tensor
   LRPA    =     F    only Hartree local field effects (RPA)
   LNABLA  =     F    use nabla operator in PAW spheres
   LVEL    =     F    velocity operator in full k-point grid
   CSHIFT  =0.1000    complex shift for real part using Kramers Kronig
   OMEGAMAX=  -1.0    maximum frequency
   DEG_THRESHOLD= 0.2000000E-02 threshold for treating states as degnerate
   RTIME   =   -0.100 relaxation time in fs
  (WPLASMAI=    0.000 imaginary part of plasma frequency in eV, 0.658/RTIME)
   DFIELD  = 0.0000000 0.0000000 0.0000000 field for delta impulse in time
 
  Optional k-point grid parameters
   LKPOINTS_OPT  =     F    use optional k-point grid
   KPOINTS_OPT_MODE=     1    mode for optional k-point grid
 
 Orbital magnetization related:
   ORBITALMAG=     F  switch on orbital magnetization
   LCHIMAG   =     F  perturbation theory with respect to B field
   DQ        =  0.001000  dq finite difference perturbation B field
   LLRAUG    =     F  two centre corrections for induced B field
   LBONE     =     F  B-component reconstruction in AE one-centre
   LVGVCALC  =     T  calculate vGv susceptibility
   LVGVAPPL  =     F  apply vGv susceptibility instead of pGv for G=0

 Random number generation:
   RANDOM_GENERATOR = DEFAULT
   PCG_SEED         = not used


--------------------------------------------------------------------------------------------------------


 conjugate gradient relaxation of ions
 charge density and potential will be updated during run
 spin polarized calculation
 Conjugate gradient for all bands (Freysoldt, et al. PRB 79, 241103 (2009))
 preconditioned conjugated gradient                                        
 perform sub-space diagonalisation
    before iterative eigenvector-optimisation
 modified Broyden-mixing scheme, WC =      100.0
 initial mixing is a Kerker type mixing with AMIX =  0.4000 and BMIX =      1.0000
 Hartree-type preconditioning will be used
 using additional bands           18
 reciprocal scheme for non local part
 use partial core corrections
 no Harris-corrections to forces 
 use gradient corrections 
 use of overlap-Matrix (Vanderbilt PP)
 Methfessel and Paxton  Order N= 1 SIGMA  =   0.20


--------------------------------------------------------------------------------------------------------


  energy-cutoff  :      520.00
  volume of cell :      154.00
      direct lattice vectors                 reciprocal lattice vectors
     3.698343487  0.000000000  0.000000000     0.270391326  0.000000000  0.000000000
     0.000000000  3.698343487  0.000000000     0.000000000  0.270391326  0.000000000
     0.000000000  0.000000000 11.259166265     0.000000000  0.000000000  0.088816523

  length of vectors
     3.698343487  3.698343487 11.259166265     0.270391326  0.270391326  0.088816523


 
 k-points in units of 2pi/SCALE and weight: pymatgen with grid density = 8800 / numb
   0.00000000  0.00000000  0.00000000       0.001
   0.02079933  0.00000000  0.00000000       0.006
   0.04159867  0.00000000  0.00000000       0.006
   0.06239800  0.00000000  0.00000000       0.006
   0.08319733  0.00000000  0.00000000       0.006
   0.10399666  0.00000000  0.00000000       0.006
   0.12479600  0.00000000  0.00000000       0.006
   0.02079933  0.02079933  0.00000000       0.006
   0.04159867  0.02079933  0.00000000       0.012
   0.06239800  0.02079933  0.00000000       0.012
   0.08319733  0.02079933  0.00000000       0.012
   0.10399666  0.02079933  0.00000000       0.012
   0.12479600  0.02079933  0.00000000       0.012
   0.04159867  0.04159867  0.00000000       0.006
   0.06239800  0.04159867  0.00000000       0.012
   0.08319733  0.04159867  0.00000000       0.012
   0.10399666  0.04159867  0.00000000       0.012
   0.12479600  0.04159867  0.00000000       0.012
   0.06239800  0.06239800  0.00000000       0.006
   0.08319733  0.06239800  0.00000000       0.012
   0.10399666  0.06239800  0.00000000       0.012
   0.12479600  0.06239800  0.00000000       0.012
   0.08319733  0.08319733  0.00000000       0.006
   0.10399666  0.08319733  0.00000000       0.012
   0.12479600  0.08319733  0.00000000       0.012
   0.10399666  0.10399666  0.00000000       0.006
   0.12479600  0.10399666  0.00000000       0.012
   0.12479600  0.12479600  0.00000000       0.006
   0.00000000  0.00000000  0.02220413       0.003
   0.02079933  0.00000000  0.02220413       0.012
   0.04159867  0.00000000  0.02220413       0.012
   0.06239800  0.00000000  0.02220413       0.012
   0.08319733  0.00000000  0.02220413       0.012
   0.10399666  0.00000000  0.02220413       0.012
   0.12479600  0.00000000  0.02220413       0.012
   0.02079933  0.02079933  0.02220413       0.012
   0.04159867  0.02079933  0.02220413       0.024
   0.06239800  0.02079933  0.02220413       0.024
   0.08319733  0.02079933  0.02220413       0.024
   0.10399666  0.02079933  0.02220413       0.024
   0.12479600  0.02079933  0.02220413       0.024
   0.04159867  0.04159867  0.02220413       0.012
   0.06239800  0.04159867  0.02220413       0.024
   0.08319733  0.04159867  0.02220413       0.024
   0.10399666  0.04159867  0.02220413       0.024
   0.12479600  0.04159867  0.02220413       0.024
   0.06239800  0.06239800  0.02220413       0.012
   0.08319733  0.06239800  0.02220413       0.024
   0.10399666  0.06239800  0.02220413       0.024
   0.12479600  0.06239800  0.02220413       0.024
   0.08319733  0.08319733  0.02220413       0.012
   0.10399666  0.08319733  0.02220413       0.024
   0.12479600  0.08319733  0.02220413       0.024
   0.10399666  0.10399666  0.02220413       0.012
   0.12479600  0.10399666  0.02220413       0.024
   0.12479600  0.12479600  0.02220413       0.012
   0.00000000  0.00000000  0.04440826       0.001
   0.02079933  0.00000000  0.04440826       0.006
   0.04159867  0.00000000  0.04440826       0.006
   0.06239800  0.00000000  0.04440826       0.006
   0.08319733  0.00000000  0.04440826       0.006
   0.10399666  0.00000000  0.04440826       0.006
   0.12479600  0.00000000  0.04440826       0.006
   0.02079933  0.02079933  0.04440826       0.006
   0.04159867  0.02079933  0.04440826       0.012
   0.06239800  0.02079933  0.04440826       0.012
   0.08319733  0.02079933  0.04440826       0.012
   0.10399666  0.02079933  0.04440826       0.012
   0.12479600  0.02079933  0.04440826       0.012
   0.04159867  0.04159867  0.04440826       0.006
   0.06239800  0.04159867  0.04440826       0.012
   0.08319733  0.04159867  0.04440826       0.012
   0.10399666  0.04159867  0.04440826       0.012
   0.12479600  0.04159867  0.04440826       0.012
   0.06239800  0.06239800  0.04440826       0.006
   0.08319733  0.06239800  0.04440826       0.012
   0.10399666  0.06239800  0.04440826       0.012
   0.12479600  0.06239800  0.04440826       0.012
   0.08319733  0.08319733  0.04440826       0.006
   0.10399666  0.08319733  0.04440826       0.012
   0.12479600  0.08319733  0.04440826       0.012
   0.10399666  0.10399666  0.04440826       0.006
   0.12479600  0.10399666  0.04440826       0.012
   0.12479600  0.12479600  0.04440826       0.006
 
 k-points in reciprocal lattice and weights: pymatgen with grid density = 8800 / numb
   0.00000000  0.00000000  0.00000000       0.001
   0.07692308  0.00000000  0.00000000       0.006
   0.15384615  0.00000000  0.00000000       0.006
   0.23076923  0.00000000  0.00000000       0.006
   0.30769231  0.00000000  0.00000000       0.006
   0.38461538  0.00000000  0.00000000       0.006
   0.46153846  0.00000000  0.00000000       0.006
   0.07692308  0.07692308  0.00000000       0.006
   0.15384615  0.07692308  0.00000000       0.012
   0.23076923  0.07692308  0.00000000       0.012
   0.30769231  0.07692308  0.00000000       0.012
   0.38461538  0.07692308  0.00000000       0.012
   0.46153846  0.07692308  0.00000000       0.012
   0.15384615  0.15384615  0.00000000       0.006
   0.23076923  0.15384615  0.00000000       0.012
   0.30769231  0.15384615  0.00000000       0.012
   0.38461538  0.15384615  0.00000000       0.012
   0.46153846  0.15384615  0.00000000       0.012
   0.23076923  0.23076923  0.00000000       0.006
   0.30769231  0.23076923  0.00000000       0.012
   0.38461538  0.23076923  0.00000000       0.012
   0.46153846  0.23076923  0.00000000       0.012
   0.30769231  0.30769231  0.00000000       0.006
   0.38461538  0.30769231  0.00000000       0.012
   0.46153846  0.30769231  0.00000000       0.012
   0.38461538  0.38461538  0.00000000       0.006
   0.46153846  0.38461538  0.00000000       0.012
   0.46153846  0.46153846  0.00000000       0.006
   0.00000000  0.00000000  0.25000000       0.003
   0.07692308  0.00000000  0.25000000       0.012
   0.15384615  0.00000000  0.25000000       0.012
   0.23076923  0.00000000  0.25000000       0.012
   0.30769231  0.00000000  0.25000000       0.012
   0.38461538  0.00000000  0.25000000       0.012
   0.46153846  0.00000000  0.25000000       0.012
   0.07692308  0.07692308  0.25000000       0.012
   0.15384615  0.07692308  0.25000000       0.024
   0.23076923  0.07692308  0.25000000       0.024
   0.30769231  0.07692308  0.25000000       0.024
   0.38461538  0.07692308  0.25000000       0.024
   0.46153846  0.07692308  0.25000000       0.024
   0.15384615  0.15384615  0.25000000       0.012
   0.23076923  0.15384615  0.25000000       0.024
   0.30769231  0.15384615  0.25000000       0.024
   0.38461538  0.15384615  0.25000000       0.024
   0.46153846  0.15384615  0.25000000       0.024
   0.23076923  0.23076923  0.25000000       0.012
   0.30769231  0.23076923  0.25000000       0.024
   0.38461538  0.23076923  0.25000000       0.024
   0.46153846  0.23076923  0.25000000       0.024
   0.30769231  0.30769231  0.25000000       0.012
   0.38461538  0.30769231  0.25000000       0.024
   0.46153846  0.30769231  0.25000000       0.024
   0.38461538  0.38461538  0.25000000       0.012
   0.46153846  0.38461538  0.25000000       0.024
   0.46153846  0.46153846  0.25000000       0.012
   0.00000000  0.00000000  0.50000000       0.001
   0.07692308  0.00000000  0.50000000       0.006
   0.15384615  0.00000000  0.50000000       0.006
   0.23076923  0.00000000  0.50000000       0.006
   0.30769231  0.00000000  0.50000000       0.006
   0.38461538  0.00000000  0.50000000       0.006
   0.46153846  0.00000000  0.50000000       0.006
   0.07692308  0.07692308  0.50000000       0.006
   0.15384615  0.07692308  0.50000000       0.012
   0.23076923  0.07692308  0.50000000       0.012
   0.30769231  0.07692308  0.50000000       0.012
   0.38461538  0.07692308  0.50000000       0.012
   0.46153846  0.07692308  0.50000000       0.012
   0.15384615  0.15384615  0.50000000       0.006
   0.23076923  0.15384615  0.50000000       0.012
   0.30769231  0.15384615  0.50000000       0.012
   0.38461538  0.15384615  0.50000000       0.012
   0.46153846  0.15384615  0.50000000       0.012
   0.23076923  0.23076923  0.50000000       0.006
   0.30769231  0.23076923  0.50000000       0.012
   0.38461538  0.23076923  0.50000000       0.012
   0.46153846  0.23076923  0.50000000       0.012
   0.30769231  0.30769231  0.50000000       0.006
   0.38461538  0.30769231  0.50000000       0.012
   0.46153846  0.30769231  0.50000000       0.012
   0.38461538  0.38461538  0.50000000       0.006
   0.46153846  0.38461538  0.50000000       0.012
   0.46153846  0.46153846  0.50000000       0.006
 
 position of ions in fractional coordinates (direct lattice) 
   0.00000000  0.50000000  0.16665758
   0.00000000  0.50000000  0.49946023
   0.00000000  0.50000000  0.83388166
   0.50000000  0.50000000  0.00600579
   0.50000000  0.50000000  0.32738212
   0.50000000  0.50000000  0.66663181
   0.50000000  0.00000000  0.16665758
   0.50000000  0.00000000  0.49946023
   0.50000000  0.00000000  0.83388166
   0.00000000  0.00000000  0.99765193
   0.00000000  0.00000000  0.33564224
   0.00000000  0.00000000  0.66668718
 
 position of ions in cartesian coordinates  (Angst):
   0.00000000  1.84917174  1.87642540
   0.00000000  1.84917174  5.62350576
   0.00000000  1.84917174  9.38881226
   1.84917174  1.84917174  0.06762014
   1.84917174  1.84917174  3.68604969
   1.84917174  1.84917174  7.50571834
   1.84917174  0.00000000  1.87642540
   1.84917174  0.00000000  5.62350576
   1.84917174  0.00000000  9.38881226
   0.00000000  0.00000000 11.23272895
   0.00000000  0.00000000  3.77905183
   0.00000000  0.00000000  7.50634180
 


--------------------------------------------------------------------------------------------------------


 k-point     1 :   0.0000 0.0000 0.0000  plane waves:    4145
 k-point     2 :   0.0769 0.0000 0.0000  plane waves:    4131
 k-point     3 :   0.1538 0.0000 0.0000  plane waves:    4124
 k-point     4 :   0.2308 0.0000 0.0000  plane waves:    4128
 k-point     5 :   0.3077 0.0000 0.0000  plane waves:    4140
 k-point     6 :   0.3846 0.0000 0.0000  plane waves:    4136
 k-point     7 :   0.4615 0.0000 0.0000  plane waves:    4150
 k-point     8 :   0.0769 0.0769 0.0000  plane waves:    4117
 k-point     9 :   0.1538 0.0769 0.0000  plane waves:    4121
 k-point    10 :   0.2308 0.0769 0.0000  plane waves:    4128
 k-point    11 :   0.3077 0.0769 0.0000  plane waves:    4134
 k-point    12 :   0.3846 0.0769 0.0000  plane waves:    4144
 k-point    13 :   0.4615 0.0769 0.0000  plane waves:    4144
 k-point    14 :   0.1538 0.1538 0.0000  plane waves:    4120
 k-point    15 :   0.2308 0.1538 0.0000  plane waves:    4140
 k-point    16 :   0.3077 0.1538 0.0000  plane waves:    4144
 k-point    17 :   0.3846 0.1538 0.0000  plane waves:    4145
 k-point    18 :   0.4615 0.1538 0.0000  plane waves:    4154
 k-point    19 :   0.2308 0.2308 0.0000  plane waves:    4160
 k-point    20 :   0.3077 0.2308 0.0000  plane waves:    4164
 k-point    21 :   0.3846 0.2308 0.0000  plane waves:    4149
 k-point    22 :   0.4615 0.2308 0.0000  plane waves:    4154
 k-point    23 :   0.3077 0.3077 0.0000  plane waves:    4164
 k-point    24 :   0.3846 0.3077 0.0000  plane waves:    4156
 k-point    25 :   0.4615 0.3077 0.0000  plane waves:    4165
 k-point    26 :   0.3846 0.3846 0.0000  plane waves:    4156
 k-point    27 :   0.4615 0.3846 0.0000  plane waves:    4168
 k-point    28 :   0.4615 0.4615 0.0000  plane waves:    4152
 k-point    29 :   0.0000 0.0000 0.2500  plane waves:    4146
 k-point    30 :   0.0769 0.0000 0.2500  plane waves:    4131
 k-point    31 :   0.1538 0.0000 0.2500  plane waves:    4131
 k-point    32 :   0.2308 0.0000 0.2500  plane waves:    4131
 k-point    33 :   0.3077 0.0000 0.2500  plane waves:    4149
 k-point    34 :   0.3846 0.0000 0.2500  plane waves:    4136
 k-point    35 :   0.4615 0.0000 0.2500  plane waves:    4150
 k-point    36 :   0.0769 0.0769 0.2500  plane waves:    4131
 k-point    37 :   0.1538 0.0769 0.2500  plane waves:    4133
 k-point    38 :   0.2308 0.0769 0.2500  plane waves:    4131
 k-point    39 :   0.3077 0.0769 0.2500  plane waves:    4139
 k-point    40 :   0.3846 0.0769 0.2500  plane waves:    4140
 k-point    41 :   0.4615 0.0769 0.2500  plane waves:    4148
 k-point    42 :   0.1538 0.1538 0.2500  plane waves:    4134
 k-point    43 :   0.2308 0.1538 0.2500  plane waves:    4141
 k-point    44 :   0.3077 0.1538 0.2500  plane waves:    4144
 k-point    45 :   0.3846 0.1538 0.2500  plane waves:    4146
 k-point    46 :   0.4615 0.1538 0.2500  plane waves:    4148
 k-point    47 :   0.2308 0.2308 0.2500  plane waves:    4144
 k-point    48 :   0.3077 0.2308 0.2500  plane waves:    4155
 k-point    49 :   0.3846 0.2308 0.2500  plane waves:    4162
 k-point    50 :   0.4615 0.2308 0.2500  plane waves:    4158
 k-point    51 :   0.3077 0.3077 0.2500  plane waves:    4160
 k-point    52 :   0.3846 0.3077 0.2500  plane waves:    4157
 k-point    53 :   0.4615 0.3077 0.2500  plane waves:    4155
 k-point    54 :   0.3846 0.3846 0.2500  plane waves:    4169
 k-point    55 :   0.4615 0.3846 0.2500  plane waves:    4164
 k-point    56 :   0.4615 0.4615 0.2500  plane waves:    4170
 k-point    57 :   0.0000 0.0000 0.5000  plane waves:    4154
 k-point    58 :   0.0769 0.0000 0.5000  plane waves:    4154
 k-point    59 :   0.1538 0.0000 0.5000  plane waves:    4156
 k-point    60 :   0.2308 0.0000 0.5000  plane waves:    4144
 k-point    61 :   0.3077 0.0000 0.5000  plane waves:    4138
 k-point    62 :   0.3846 0.0000 0.5000  plane waves:    4134
 k-point    63 :   0.4615 0.0000 0.5000  plane waves:    4142
 k-point    64 :   0.0769 0.0769 0.5000  plane waves:    4152
 k-point    65 :   0.1538 0.0769 0.5000  plane waves:    4140
 k-point    66 :   0.2308 0.0769 0.5000  plane waves:    4136
 k-point    67 :   0.3077 0.0769 0.5000  plane waves:    4138
 k-point    68 :   0.3846 0.0769 0.5000  plane waves:    4150
 k-point    69 :   0.4615 0.0769 0.5000  plane waves:    4150
 k-point    70 :   0.1538 0.1538 0.5000  plane waves:    4122
 k-point    71 :   0.2308 0.1538 0.5000  plane waves:    4138
 k-point    72 :   0.3077 0.1538 0.5000  plane waves:    4132
 k-point    73 :   0.3846 0.1538 0.5000  plane waves:    4162
 k-point    74 :   0.4615 0.1538 0.5000  plane waves:    4154
 k-point    75 :   0.2308 0.2308 0.5000  plane waves:    4132
 k-point    76 :   0.3077 0.2308 0.5000  plane waves:    4146
 k-point    77 :   0.3846 0.2308 0.5000  plane waves:    4156
 k-point    78 :   0.4615 0.2308 0.5000  plane waves:    4158
 k-point    79 :   0.3077 0.3077 0.5000  plane waves:    4158
 k-point    80 :   0.3846 0.3077 0.5000  plane waves:    4156
 k-point    81 :   0.4615 0.3077 0.5000  plane waves:    4164
 k-point    82 :   0.3846 0.3846 0.5000  plane waves:    4166
 k-point    83 :   0.4615 0.3846 0.5000  plane waves:    4154
 k-point    84 :   0.4615 0.4615 0.5000  plane waves:    4150

 maximum and minimum number of plane-waves per node :      4170     4117

 maximum number of plane-waves:      4170
 maximum index in each direction: 
   IXMAX=    6   IYMAX=    6   IZMAX=   20
   IXMIN=   -7   IYMIN=   -7   IZMIN=  -21


 serial   3D FFT for wavefunctions
 parallel 3D FFT for charge:
    minimum data exchange during FFTs selected (reduces bandwidth)


 total amount of memory used by VASP MPI-rank0   247121. kBytes
=======================================================================

   base      :      30000. kBytes
   nonl-proj :     102217. kBytes
   fftplans  :        888. kBytes
   grid      :       6813. kBytes
   one-center:        373. kBytes
   wavefun   :     106830. kBytes
 
     INWAV:  cpu time      0.0000: real time      0.0000
 Broyden mixing: mesh for mixing (old mesh)
   NGX = 13   NGY = 13   NGZ = 41
  (NGX  = 56   NGY  = 56   NGZ  =168)
  gives a total of   6929 points

 initial charge density was supplied:
 charge density of overlapping atoms calculated
 number of electron     156.0000000 magnetization       2.5860000
 charge density for first step will be calculated from the start-wavefunctions


--------------------------------------------------------------------------------------------------------


 Maximum index for augmentation-charges         1036 (set IRDMAX)


--------------------------------------------------------------------------------------------------------


 First call to EWALD:  gamma=   0.331
 Maximum number of real-space cells 4x 4x 2
 Maximum number of reciprocal cells 2x 2x 5

    FEWALD:  cpu time      0.0026: real time      0.0026


--------------------------------------- Ionic step        1  -------------------------------------------




--------------------------------------- Iteration      1(   1)  ---------------------------------------


    POTLOK:  cpu time      0.0369: real time      0.0374
    SETDIJ:  cpu time      0.0145: real time      0.0152
    TRIAL :  cpu time      4.3482: real time      4.3812
    CORREC:  cpu time      0.0026: real time      0.0026
    --------------------------------------------
      LOOP:  cpu time      4.4631: real time      4.5252

 eigenvalue-minimisations  : 32256
 total energy-change (2. order) : 0.1737424E+04  (-0.9375472E+04)
 number of electron     156.0000000 magnetization       2.5860000
 augmentation part      156.0000000 magnetization       2.5860000

 Free energy of the ion-electron system (eV)
  ---------------------------------------------------
  alpha Z        PSCENC =      1105.13071145
  Ewald energy   TEWEN  =    -18164.75644141
  -Hartree energ DENC   =     -5957.49219735
  -exchange      EXHF   =         0.00000000
  -V(xc)+E(xc)   XCENC  =       657.12299143
  PAW double counting   =     20094.54081476   -20818.52038947
  entropy T*S    EENTRO =        -0.00109410
  eigenvalues    EBANDS =       517.29630739
  atomic energy  EATOM  =     24304.10294433
  ---------------------------------------------------
  free energy    TOTEN  =      1737.42364703 eV

  energy without entropy =     1737.42474113  energy(sigma->0) =     1737.42401173


--------------------------------------------------------------------------------------------------------




--------------------------------------- Iteration      1(   2)  ---------------------------------------


    TRIAL :  cpu time      4.3868: real time      4.4178
    CORREC:  cpu time      0.0024: real time      0.0024
    --------------------------------------------
      LOOP:  cpu time      4.3982: real time      4.4433

 eigenvalue-minimisations  : 32448
 total energy-change (2. order) :-0.1728014E+04  (-0.1697606E+04)
 number of electron     156.0000000 magnetization       2.5860000
 augmentation part      156.0000000 magnetization       2.5860000

 Free energy of the ion-electron system (eV)
  ---------------------------------------------------
  alpha Z        PSCENC =      1105.13071145
  Ewald energy   TEWEN  =    -18164.75644141
  -Hartree energ DENC   =     -5957.49219735
  -exchange      EXHF   =         0.00000000
  -V(xc)+E(xc)   XCENC  =       657.12299143
  PAW double counting   =     20094.54081476   -20818.52038947
  entropy T*S    EENTRO =         0.00335771
  eigenvalues    EBANDS =     -1210.72194466
  atomic energy  EATOM  =     24304.10294433
  ---------------------------------------------------
  free energy    TOTEN  =         9.40984678 eV

  energy without entropy =        9.40648908  energy(sigma->0) =        9.40872755


--------------------------------------------------------------------------------------------------------




--------------------------------------- Iteration      1(   3)  ---------------------------------------


    TRIAL :  cpu time      5.4790: real time      5.5154
    CORREC:  cpu time      0.0030: real time      0.2014
    --------------------------------------------
      LOOP:  cpu time      5.4912: real time      5.7392

 eigenvalue-minimisations  : 40128
 total energy-change (2. order) :-0.1121548E+03  (-0.1109592E+03)
 number of electron     156.0000000 magnetization       2.5860000
 augmentation part      156.0000000 magnetization       2.5860000

 Free energy of the ion-electron system (eV)
  ---------------------------------------------------
  alpha Z        PSCENC =      1105.13071145
  Ewald energy   TEWEN  =    -18164.75644141
  -Hartree energ DENC   =     -5957.49219735
  -exchange      EXHF   =         0.00000000
  -V(xc)+E(xc)   XCENC  =       657.12299143
  PAW double counting   =     20094.54081476   -20818.52038947
  entropy T*S    EENTRO =         0.01311365
  eigenvalues    EBANDS =     -1322.88649661
  atomic energy  EATOM  =     24304.10294433
  ---------------------------------------------------
  free energy    TOTEN  =      -102.74494923 eV

  energy without entropy =     -102.75806288  energy(sigma->0) =     -102.74932044


--------------------------------------------------------------------------------------------------------




--------------------------------------- Iteration      1(   4)  ---------------------------------------


    TRIAL :  cpu time      4.4592: real time      4.4907
    CORREC:  cpu time      0.0023: real time      0.0023
    --------------------------------------------
      LOOP:  cpu time      4.4698: real time      4.5169

 eigenvalue-minimisations  : 32768
 total energy-change (2. order) :-0.2405587E+01  (-0.2403929E+01)
 number of electron     156.0000000 magnetization       2.5860000
 augmentation part      156.0000000 magnetization       2.5860000

 Free energy of the ion-electron system (eV)
  ---------------------------------------------------
  alpha Z        PSCENC =      1105.13071145
  Ewald energy   TEWEN  =    -18164.75644141
  -Hartree energ DENC   =     -5957.49219735
  -exchange      EXHF   =         0.00000000
  -V(xc)+E(xc)   XCENC  =       657.12299143
  PAW double counting   =     20094.54081476   -20818.52038947
  entropy T*S    EENTRO =         0.01312063
  eigenvalues    EBANDS =     -1325.29209097
  atomic energy  EATOM  =     24304.10294433
  ---------------------------------------------------
  free energy    TOTEN  =      -105.15053661 eV

  energy without entropy =     -105.16365724  energy(sigma->0) =     -105.15491015


--------------------------------------------------------------------------------------------------------




--------------------------------------- Iteration      1(   5)  ---------------------------------------


    TRIAL :  cpu time      6.0414: real time      6.1190
    CORREC:  cpu time      0.0032: real time      0.0032
    CHARGE:  cpu time      0.1569: real time      0.1584
    --------------------------------------------
      LOOP:  cpu time      6.2233: real time      6.3027

 eigenvalue-minimisations  : 40864
 total energy-change (2. order) :-0.5307858E-01  (-0.5307499E-01)
 number of electron     156.0000280 magnetization       2.2391258
 augmentation part       79.2458188 magnetization       1.5924240

 Free energy of the ion-electron system (eV)
  ---------------------------------------------------
  alpha Z        PSCENC =      1105.13071145
  Ewald energy   TEWEN  =    -18164.75644141
  -Hartree energ DENC   =     -5957.49219735
  -exchange      EXHF   =         0.00000000
  -V(xc)+E(xc)   XCENC  =       657.12299143
  PAW double counting   =     20094.54081476   -20818.52038947
  entropy T*S    EENTRO =         0.01309406
  eigenvalues    EBANDS =     -1325.34514299
  atomic energy  EATOM  =     24304.10294433
  ---------------------------------------------------
  free energy    TOTEN  =      -105.20361519 eV

  energy without entropy =     -105.21670925  energy(sigma->0) =     -105.20797988


--------------------------------------------------------------------------------------------------------




--------------------------------------- Iteration      1(   6)  ---------------------------------------


    POTLOK:  cpu time      0.0226: real time      0.0228
    SETDIJ:  cpu time      0.0077: real time      0.0077
    TRIAL :  cpu time      2.0609: real time      2.0819
    CORREC:  cpu time      0.7706: real time      0.7773
    CHARGE:  cpu time      0.1498: real time      0.1509
    --------------------------------------------
      LOOP:  cpu time      3.0189: real time      3.0609

 eigenvalue-minimisations  :     0
 total energy-change (2. order) : 0.5222285E+02  (-0.2378283E+02)
 number of electron     156.0000290 magnetization       2.1142106
 augmentation part       81.9312518 magnetization       1.6387109

 Free energy of the ion-electron system (eV)
  ---------------------------------------------------
  alpha Z        PSCENC =      1105.13071145
  Ewald energy   TEWEN  =    -18164.75644141
  -Hartree energ DENC   =     -4849.49029426
  -exchange      EXHF   =         0.00000000
  -V(xc)+E(xc)   XCENC  =       610.76979903
  PAW double counting   =     21151.51882014   -21816.84355435
  entropy T*S    EENTRO =         0.01260473
  eigenvalues    EBANDS =     -2393.42584218
  atomic energy  EATOM  =     24304.10294433
  ---------------------------------------------------
  free energy    TOTEN  =       -52.98076319 eV

  energy without entropy =      -52.99336791  energy(sigma->0) =      -52.98496476


--------------------------------------------------------------------------------------------------------




--------------------------------------- Iteration      1(   7)  ---------------------------------------


    POTLOK:  cpu time      0.0218: real time      0.0219
    SETDIJ:  cpu time      0.0076: real time      0.0077
    TRIAL :  cpu time      1.8872: real time      1.9065
    CORREC:  cpu time      0.7666: real time      0.7747
    CHARGE:  cpu time      0.1503: real time      0.1511
    --------------------------------------------
      LOOP:  cpu time      2.8418: real time      2.8850

 eigenvalue-minimisations  :     0
 total energy-change (2. order) :-0.2698301E+02  (-0.5890022E+01)
 number of electron     156.0000293 magnetization       2.2521529
 augmentation part       82.9840533 magnetization       1.6726477

 Free energy of the ion-electron system (eV)
  ---------------------------------------------------
  alpha Z        PSCENC =      1105.13071145
  Ewald energy   TEWEN  =    -18164.75644141
  -Hartree energ DENC   =     -5204.17428030
  -exchange      EXHF   =         0.00000000
  -V(xc)+E(xc)   XCENC  =       625.76234904
  PAW double counting   =     21536.97440610   -22267.55321522
  entropy T*S    EENTRO =         0.01405355
  eigenvalues    EBANDS =     -2015.46285062
  atomic energy  EATOM  =     24304.10294433
  ---------------------------------------------------
  free energy    TOTEN  =       -79.96377191 eV

  energy without entropy =      -79.97782547  energy(sigma->0) =      -79.96845643


--------------------------------------------------------------------------------------------------------




--------------------------------------- Iteration      1(   8)  ---------------------------------------


    POTLOK:  cpu time      0.0214: real time      0.0216
    SETDIJ:  cpu time      0.0076: real time      0.0077
    TRIAL :  cpu time      1.9015: real time      1.9199
    CORREC:  cpu time      0.7684: real time      0.7765
    CHARGE:  cpu time      0.1496: real time      0.1505
    --------------------------------------------
      LOOP:  cpu time      2.8576: real time      2.8996

 eigenvalue-minimisations  :     0
 total energy-change (2. order) :-0.6870857E+01  (-0.3440093E+01)
 number of electron     156.0000297 magnetization       2.2262422
 augmentation part       84.3620380 magnetization       1.6769747

 Free energy of the ion-electron system (eV)
  ---------------------------------------------------
  alpha Z        PSCENC =      1105.13071145
  Ewald energy   TEWEN  =    -18164.75644141
  -Hartree energ DENC   =     -5351.00846116
  -exchange      EXHF   =         0.00000000
  -V(xc)+E(xc)   XCENC  =       631.79761062
  PAW double counting   =     21751.86918644   -22507.09227822
  entropy T*S    EENTRO =         0.01507677
  eigenvalues    EBANDS =     -1856.89195452
  atomic energy  EATOM  =     24304.10294433
  ---------------------------------------------------
  free energy    TOTEN  =       -86.83462891 eV

  energy without entropy =      -86.84970568  energy(sigma->0) =      -86.83965450


--------------------------------------------------------------------------------------------------------




--------------------------------------- Iteration      1(   9)  ---------------------------------------


    POTLOK:  cpu time      0.0213: real time      0.0215
    SETDIJ:  cpu time      0.0082: real time      0.0083
    TRIAL :  cpu time      2.1012: real time      2.1210
    CORREC:  cpu time      0.7780: real time      0.7860
    CHARGE:  cpu time      0.1506: real time      0.1514
    --------------------------------------------
      LOOP:  cpu time      3.0820: real time      3.1112

 eigenvalue-minimisations  :     0
 total energy-change (2. order) :-0.3416086E+01  (-0.7228541E+00)
 number of electron     156.0000298 magnetization       2.1524990
 augmentation part       84.7067602 magnetization       1.6628423

 Free energy of the ion-electron system (eV)
  ---------------------------------------------------
  alpha Z        PSCENC =      1105.13071145
  Ewald energy   TEWEN  =    -18164.75644141
  -Hartree energ DENC   =     -5542.20783831
  -exchange      EXHF   =         0.00000000
  -V(xc)+E(xc)   XCENC  =       639.85826273
  PAW double counting   =     22090.33120986   -22872.05453462
  entropy T*S    EENTRO =         0.01298199
  eigenvalues    EBANDS =     -1650.67010593
  atomic energy  EATOM  =     24304.10294433
  ---------------------------------------------------
  free energy    TOTEN  =       -90.25071514 eV

  energy without entropy =      -90.26369713  energy(sigma->0) =      -90.25504247


--------------------------------------------------------------------------------------------------------




--------------------------------------- Iteration      1(  10)  ---------------------------------------


    POTLOK:  cpu time      0.0213: real time      0.0215
    SETDIJ:  cpu time      0.0082: real time      0.0083
    TRIAL :  cpu time      1.9065: real time      1.9252
    CORREC:  cpu time      0.7686: real time      0.7764
    CHARGE:  cpu time      0.1502: real time      0.1510
    --------------------------------------------
      LOOP:  cpu time      2.8639: real time      2.9044

 eigenvalue-minimisations  :     0
 total energy-change (2. order) :-0.7580227E+00  (-0.9576515E+00)
 number of electron     156.0000298 magnetization       2.2340172
 augmentation part       85.0024143 magnetization       1.7205321

 Free energy of the ion-electron system (eV)
  ---------------------------------------------------
  alpha Z        PSCENC =      1105.13071145
  Ewald energy   TEWEN  =    -18164.75644141
  -Hartree energ DENC   =     -5584.72845133
  -exchange      EXHF   =         0.00000000
  -V(xc)+E(xc)   XCENC  =       641.84569862
  PAW double counting   =     22184.43149775   -22968.98562636
  entropy T*S    EENTRO =         0.01345381
  eigenvalues    EBANDS =     -1608.06205290
  atomic energy  EATOM  =     24304.10294433
  ---------------------------------------------------
  free energy    TOTEN  =       -91.00873785 eV

  energy without entropy =      -91.02219166  energy(sigma->0) =      -91.01322246


--------------------------------------------------------------------------------------------------------




--------------------------------------- Iteration      1(  11)  ---------------------------------------


    POTLOK:  cpu time      0.0217: real time      0.0219
    SETDIJ:  cpu time      0.0080: real time      0.0080
    TRIAL :  cpu time      1.9485: real time      1.9680
    CORREC:  cpu time      0.8781: real time      0.8867
    CHARGE:  cpu time      0.1494: real time      0.1502
    --------------------------------------------
      LOOP:  cpu time      3.0285: real time      3.0580

 eigenvalue-minimisations  :     0
 total energy-change (2. order) :-0.9836636E+00  (-0.3656496E+00)
 number of electron     156.0000297 magnetization       2.3012237
 augmentation part       84.9087729 magnetization       1.7575241

 Free energy of the ion-electron system (eV)
  ---------------------------------------------------
  alpha Z        PSCENC =      1105.13071145
  Ewald energy   TEWEN  =    -18164.75644141
  -Hartree energ DENC   =     -5616.87528385
  -exchange      EXHF   =         0.00000000
  -V(xc)+E(xc)   XCENC  =       643.52133210
  PAW double counting   =     22270.80623554   -23050.96732197
  entropy T*S    EENTRO =         0.01574725
  eigenvalues    EBANDS =     -1582.96803143
  atomic energy  EATOM  =     24304.10294433
  ---------------------------------------------------
  free energy    TOTEN  =       -91.99240143 eV

  energy without entropy =      -92.00814868  energy(sigma->0) =      -91.99765052


--------------------------------------------------------------------------------------------------------




--------------------------------------- Iteration      1(  12)  ---------------------------------------


    POTLOK:  cpu time      0.0215: real time      0.0216
    SETDIJ:  cpu time      0.0081: real time      0.0081
    TRIAL :  cpu time      1.9038: real time      1.9233
    CORREC:  cpu time      0.9112: real time      0.9202
    CHARGE:  cpu time      0.1487: real time      0.1495
    --------------------------------------------
      LOOP:  cpu time      3.0012: real time      3.0447

 eigenvalue-minimisations  :     0
 total energy-change (2. order) :-0.3537307E+00  (-0.2269965E+00)
 number of electron     156.0000296 magnetization       2.2509970
 augmentation part       84.8103762 magnetization       1.7442441

 Free energy of the ion-electron system (eV)
  ---------------------------------------------------
  alpha Z        PSCENC =      1105.13071145
  Ewald energy   TEWEN  =    -18164.75644141
  -Hartree energ DENC   =     -5602.06799981
  -exchange      EXHF   =         0.00000000
  -V(xc)+E(xc)   XCENC  =       643.05583612
  PAW double counting   =     22242.20104710   -23013.45274677
  entropy T*S    EENTRO =         0.01493324
  eigenvalues    EBANDS =     -1606.57523037
  atomic energy  EATOM  =     24304.10294433
  ---------------------------------------------------
  free energy    TOTEN  =       -92.34613210 eV

  energy without entropy =      -92.36106534  energy(sigma->0) =      -92.35110984


--------------------------------------------------------------------------------------------------------




--------------------------------------- Iteration      1(  13)  ---------------------------------------


    POTLOK:  cpu time      0.0219: real time      0.0221
    SETDIJ:  cpu time      0.0079: real time      0.0079
    TRIAL :  cpu time      1.9529: real time      1.9744
    CORREC:  cpu time      0.7621: real time      0.7701
    CHARGE:  cpu time      0.1499: real time      0.1508
    --------------------------------------------
      LOOP:  cpu time      2.9031: real time      2.9469

 eigenvalue-minimisations  :     0
 total energy-change (2. order) :-0.2187773E+00  (-0.3802530E+00)
 number of electron     156.0000295 magnetization       2.2410832
 augmentation part       84.6798070 magnetization       1.7668764

 Free energy of the ion-electron system (eV)
  ---------------------------------------------------
  alpha Z        PSCENC =      1105.13071145
  Ewald energy   TEWEN  =    -18164.75644141
  -Hartree energ DENC   =     -5588.07679171
  -exchange      EXHF   =         0.00000000
  -V(xc)+E(xc)   XCENC  =       642.61100975
  PAW double counting   =     22214.86415657   -22979.35007255
  entropy T*S    EENTRO =         0.01320644
  eigenvalues    EBANDS =     -1627.10535902
  atomic energy  EATOM  =     24304.10294433
  ---------------------------------------------------
  free energy    TOTEN  =       -92.56490936 eV

  energy without entropy =      -92.57811580  energy(sigma->0) =      -92.56931150


--------------------------------------------------------------------------------------------------------




--------------------------------------- Iteration      1(  14)  ---------------------------------------


    POTLOK:  cpu time      0.0215: real time      0.0217
    SETDIJ:  cpu time      0.0077: real time      0.0078
    TRIAL :  cpu time      1.9062: real time      1.9272
    CORREC:  cpu time      0.7663: real time      0.7751
    CHARGE:  cpu time      0.1497: real time      0.1505
    --------------------------------------------
      LOOP:  cpu time      2.8608: real time      2.9051

 eigenvalue-minimisations  :     0
 total energy-change (2. order) :-0.3802749E+00  (-0.1458378E+00)
 number of electron     156.0000295 magnetization       2.3219753
 augmentation part       84.6778415 magnetization       1.8149338

 Free energy of the ion-electron system (eV)
  ---------------------------------------------------
  alpha Z        PSCENC =      1105.13071145
  Ewald energy   TEWEN  =    -18164.75644141
  -Hartree energ DENC   =     -5584.24359947
  -exchange      EXHF   =         0.00000000
  -V(xc)+E(xc)   XCENC  =       642.45149999
  PAW double counting   =     22189.04787132   -22945.10794325
  entropy T*S    EENTRO =         0.01412845
  eigenvalues    EBANDS =     -1639.58343363
  atomic energy  EATOM  =     24304.10294433
  ---------------------------------------------------
  free energy    TOTEN  =       -92.94518424 eV

  energy without entropy =      -92.95931268  energy(sigma->0) =      -92.94989372


--------------------------------------------------------------------------------------------------------




--------------------------------------- Iteration      1(  15)  ---------------------------------------


    POTLOK:  cpu time      0.0215: real time      0.0217
    SETDIJ:  cpu time      0.0076: real time      0.0076
    TRIAL :  cpu time      1.9465: real time      1.9681
    CORREC:  cpu time      0.7735: real time      0.7815
    CHARGE:  cpu time      0.1502: real time      0.1510
    --------------------------------------------
      LOOP:  cpu time      2.9211: real time      2.9521

 eigenvalue-minimisations  :     0
 total energy-change (2. order) :-0.1271868E+00  (-0.1157047E+00)
 number of electron     156.0000295 magnetization       2.2991474
 augmentation part       84.7764595 magnetization       1.8151612

 Free energy of the ion-electron system (eV)
  ---------------------------------------------------
  alpha Z        PSCENC =      1105.13071145
  Ewald energy   TEWEN  =    -18164.75644141
  -Hartree energ DENC   =     -5591.09701859
  -exchange      EXHF   =         0.00000000
  -V(xc)+E(xc)   XCENC  =       642.68676015
  PAW double counting   =     22193.13901509   -22947.67933673
  entropy T*S    EENTRO =         0.01379459
  eigenvalues    EBANDS =     -1634.61313378
  atomic energy  EATOM  =     24304.10294433
  ---------------------------------------------------
  free energy    TOTEN  =       -93.07237103 eV

  energy without entropy =      -93.08616563  energy(sigma->0) =      -93.07696923


--------------------------------------------------------------------------------------------------------




--------------------------------------- Iteration      1(  16)  ---------------------------------------


    POTLOK:  cpu time      0.0215: real time      0.0217
    SETDIJ:  cpu time      0.0083: real time      0.0084
    TRIAL :  cpu time      1.9860: real time      2.0108
    CORREC:  cpu time      0.7726: real time      0.7838
    CHARGE:  cpu time      0.1497: real time      0.1507
    --------------------------------------------
      LOOP:  cpu time      2.9603: real time      2.9978

 eigenvalue-minimisations  :     0
 total energy-change (2. order) :-0.1149962E+00  (-0.1027079E+00)
 number of electron     156.0000295 magnetization       2.3374060
 augmentation part       84.9528952 magnetization       1.8516752

 Free energy of the ion-electron system (eV)
  ---------------------------------------------------
  alpha Z        PSCENC =      1105.13071145
  Ewald energy   TEWEN  =    -18164.75644141
  -Hartree energ DENC   =     -5609.25013801
  -exchange      EXHF   =         0.00000000
  -V(xc)+E(xc)   XCENC  =       643.46692848
  PAW double counting   =     22214.45886077   -22970.72854848
  entropy T*S    EENTRO =         0.01218323
  eigenvalues    EBANDS =     -1615.62547896
  atomic energy  EATOM  =     24304.10294433
  ---------------------------------------------------
  free energy    TOTEN  =       -93.18736723 eV

  energy without entropy =      -93.19955045  energy(sigma->0) =      -93.19142830


--------------------------------------------------------------------------------------------------------




--------------------------------------- Iteration      1(  17)  ---------------------------------------


    POTLOK:  cpu time      0.0214: real time      0.0215
    SETDIJ:  cpu time      0.0083: real time      0.0084
    TRIAL :  cpu time      1.9206: real time      1.9407
    CORREC:  cpu time      0.7732: real time      0.7815
    CHARGE:  cpu time      0.1506: real time      0.1514
    --------------------------------------------
      LOOP:  cpu time      2.8825: real time      2.9257

 eigenvalue-minimisations  :     0
 total energy-change (2. order) :-0.1026119E+00  (-0.2826931E-01)
 number of electron     156.0000295 magnetization       2.3902743
[...]
     29       4.1776      1.00000
     30       4.1956      1.00000
     31       4.3461      1.00000
     32       4.4918      1.00000
     33       4.6816      1.00000
     34       4.7284      1.00000
     35       4.9862      1.00000
     36       5.0063      1.00000
     37       5.2154      1.00000
     38       5.2774      1.00000
     39       5.2815      1.00000
     40       5.8112      1.00000
     41       6.2173      1.00000
     42       6.6879      1.00000
     43       6.7133      1.00000
     44       6.7368      1.00000
     45       6.8677      1.00000
     46       6.9052      1.00000
     47       7.0628      1.00000
     48       7.0651      1.00000
     49       7.1060      1.00000
     50       7.2062      1.00000
     51       7.2981      1.00000
     52       7.3467      1.00000
     53       7.3681      1.00000
     54       7.3872      1.00000
     55       7.4152      1.00000
     56       7.5421      1.00000
     57       7.6307      1.00000
     58       7.6775      1.00000
     59       7.7931      1.00000
     60       8.1930      1.00000
     61       8.2684      1.00000
     62       8.5366      1.00000
     63       8.7034      1.00000
     64       8.7931      1.00000
     65       8.8417      1.00000
     66       8.8729      1.00000
     67       8.9265      1.00000
     68       9.0156      1.00000
     69       9.0889      1.00000
     70       9.1299      1.00000
     71       9.1344      1.00000
     72       9.1744      1.00000
     73       9.3786      1.00003
     74       9.4606      1.00031
     75       9.5815      1.00438
     76       9.6719      1.01795
     77       9.8879      0.93924
     78       9.9117      0.88196
     79      10.1516      0.05226
     80      10.2140     -0.02455
     81      10.2605     -0.03546
     82      10.3148     -0.02765
     83      10.5250     -0.00087
     84      10.7143     -0.00001
     85      10.7808     -0.00000
     86      10.9660     -0.00000
     87      10.9955     -0.00000
     88      11.0775     -0.00000
     89      11.4050     -0.00000
     90      11.5187     -0.00000
     91      11.5229     -0.00000
     92      11.6491     -0.00000
     93      11.6954     -0.00000
     94      12.1525     -0.00000
     95      12.2665     -0.00000
     96      12.3894     -0.00000


--------------------------------------------------------------------------------------------------------


 soft charge-density along one line, spin component           1
         0         1         2         3         4         5         6         7         8         9
 total charge-density along one line
 
 soft charge-density along one line, spin component           2
         0         1         2         3         4         5         6         7         8         9
 total charge-density along one line
 
 pseudopotential strength for first ion, spin component:           1
-42.654   0.000  -0.000   6.637  -0.000   0.000   0.000  -0.000
  0.000 -42.650  -0.000  -0.000   6.635   0.000  -0.000   0.000
 -0.000  -0.000 -42.589   0.000   0.000   6.610   0.000  -0.000
  6.637  -0.000   0.000   5.904  -0.000   0.000   0.000   0.000
 -0.000   6.635   0.000  -0.000   5.904   0.000   0.000  -0.000
  0.000   0.000   6.610   0.000   0.000   5.911  -0.000   0.000
  0.000  -0.000   0.000   0.000   0.000  -0.000  -0.217  -0.000
 -0.000   0.000  -0.000   0.000  -0.000   0.000  -0.000  -0.195
 -0.000  -0.000   0.000   0.000   0.000  -0.000   0.000   0.000
 -0.000  -0.000  -0.000   0.000   0.000   0.000   0.000  -0.000
 -0.000   0.000  -0.000   0.000  -0.000   0.000  -0.000  -0.000
  0.000  -0.000   0.000   0.000   0.000  -0.000  -0.761  -0.000
 -0.000   0.000  -0.000   0.000  -0.000   0.000  -0.000  -0.739
 -0.000  -0.000   0.000   0.000   0.000  -0.000   0.000   0.000
 -0.000  -0.000   0.000   0.000   0.000   0.000   0.000  -0.000
 -0.000   0.000  -0.000   0.000   0.000   0.000  -0.000  -0.000
 -0.000   0.000   0.000  -0.000   0.000   0.000   0.000  -0.000
 -0.000   0.000   0.000  -0.000   0.000   0.000   0.000  -0.000
 pseudopotential strength for first ion, spin component:           2
-44.877   0.000   0.000   7.573  -0.000  -0.000   0.000  -0.000
  0.000 -44.852  -0.000  -0.000   7.562   0.000  -0.000   0.000
  0.000  -0.000 -44.703  -0.000   0.000   7.503   0.000  -0.000
  7.573  -0.000  -0.000   5.643  -0.000  -0.000  -0.000   0.000
 -0.000   7.562   0.000  -0.000   5.645   0.000   0.000  -0.000
 -0.000   0.000   7.503  -0.000   0.000   5.657  -0.000   0.000
  0.000  -0.000   0.000  -0.000   0.000  -0.000  -1.930  -0.000
 -0.000   0.000  -0.000   0.000  -0.000   0.000  -0.000  -2.097
 -0.000  -0.000  -0.000   0.000   0.000  -0.000   0.000   0.000
 -0.000   0.000   0.000   0.000  -0.000  -0.000   0.000   0.000
 -0.000   0.000  -0.000   0.000  -0.000   0.000  -0.000  -0.000
  0.000  -0.000   0.000   0.000   0.000  -0.000  -2.446  -0.000
 -0.000   0.000  -0.000   0.000  -0.000   0.000  -0.000  -2.610
 -0.000  -0.000   0.000   0.000   0.000   0.000   0.000   0.000
 -0.000  -0.000   0.000   0.000  -0.000  -0.000   0.000   0.000
 -0.000   0.000  -0.000   0.000  -0.000   0.000  -0.000  -0.000
 -0.000   0.000   0.000  -0.000   0.000  -0.000  -0.000  -0.000
 -0.000   0.000  -0.000  -0.000   0.000   0.000  -0.000  -0.000
 total augmentation occupancy for first ion, spin component:           1
  1.992   0.000   0.000  -0.026   0.000   0.000   0.000  -0.000   0.000   0.000   0.000   0.000   0.000   0.000   0.000   0.000
  0.000   1.992   0.000   0.000  -0.026   0.000   0.000   0.000  -0.000   0.000   0.000  -0.000   0.000   0.000   0.000  -0.000
  0.000   0.000   1.992   0.000   0.000  -0.025   0.000   0.000   0.000   0.000   0.000   0.000   0.000   0.000  -0.000   0.000
 -0.026   0.000   0.000   0.177  -0.000   0.000   0.000  -0.000  -0.000   0.000   0.000   0.000   0.000   0.000   0.000   0.000
  0.000  -0.026   0.000  -0.000   0.180   0.000   0.000  -0.000   0.000  -0.000   0.000   0.000   0.000  -0.000   0.000  -0.000
  0.000   0.000  -0.025   0.000   0.000   0.175   0.000   0.000  -0.000   0.000   0.000   0.000   0.000   0.000  -0.000   0.000
  0.000   0.000   0.000   0.000   0.000   0.000   2.724  -0.000   0.000   0.000   0.000  -1.523  -0.000   0.000  -0.000   0.000
 -0.000   0.000   0.000  -0.000  -0.000   0.000  -0.000   3.059   0.000   0.000   0.000   0.000  -2.106   0.000   0.000   0.000
  0.000  -0.000   0.000  -0.000   0.000  -0.000   0.000   0.000   3.313   0.000   0.172   0.000   0.000  -1.932   0.000  -0.046
  0.000   0.000   0.000   0.000  -0.000   0.000   0.000   0.000   0.000   2.754   0.000  -0.000   0.000   0.000  -1.543   0.000
  0.000   0.000   0.000   0.000   0.000   0.000   0.000   0.000   0.172   0.000   3.174  -0.000   0.000  -0.047   0.000  -1.872
  0.000  -0.000   0.000   0.000   0.000   0.000  -1.523   0.000   0.000  -0.000  -0.000   1.729   0.000   0.000   0.000   0.000
  0.000   0.000   0.000   0.000   0.000   0.000  -0.000  -2.106   0.000   0.000   0.000   0.000   2.373   0.000   0.000  -0.000
  0.000   0.000   0.000   0.000  -0.000   0.000   0.000   0.000  -1.932   0.000  -0.047   0.000   0.000   1.853  -0.000  -0.032
  0.000   0.000  -0.000   0.000   0.000  -0.000  -0.000   0.000   0.000  -1.543   0.000   0.000   0.000  -0.000   1.792  -0.000
  0.000  -0.000   0.000   0.000  -0.000   0.000   0.000   0.000  -0.046   0.000  -1.872   0.000  -0.000  -0.032  -0.000   1.851
  0.000   0.000   0.000   0.000  -0.000   0.000   0.000   0.000  -0.077   0.000   0.129   0.000   0.000   0.060   0.000  -0.058
  0.000  -0.000  -0.000   0.000   0.000   0.000   0.000   0.000   0.009  -0.000  -0.015   0.000   0.000  -0.006   0.000   0.008
 total augmentation occupancy for first ion, spin component:           2
  0.002   0.000   0.000   0.008   0.000   0.000   0.000  -0.000   0.000   0.000   0.000   0.000   0.000   0.000  -0.000   0.000
  0.000   0.002   0.000   0.000   0.009  -0.000  -0.000   0.000  -0.000   0.000   0.000   0.000   0.000   0.000   0.000  -0.000
  0.000   0.000   0.002   0.000  -0.000   0.009   0.000   0.000   0.000   0.000   0.000   0.000   0.000   0.000  -0.000   0.000
  0.008   0.000   0.000  -0.003   0.000   0.000   0.000   0.000  -0.000  -0.000   0.000   0.000   0.000   0.000   0.000   0.000
  0.000   0.009  -0.000   0.000   0.007   0.000  -0.000  -0.000  -0.000   0.000  -0.000  -0.000   0.000   0.000   0.000  -0.000
  0.000  -0.000   0.009   0.000   0.000   0.007   0.000   0.000   0.000  -0.000   0.000   0.000   0.000   0.000  -0.000   0.000
  0.000  -0.000   0.000   0.000  -0.000   0.000  -2.140  -0.000   0.000   0.000   0.000   0.912  -0.000   0.000   0.000   0.000
 -0.000   0.000   0.000   0.000  -0.000   0.000  -0.000  -2.136   0.000   0.000   0.000   0.000   0.706   0.000   0.000   0.000
  0.000  -0.000   0.000  -0.000  -0.000   0.000   0.000   0.000  -2.588   0.000  -0.090   0.000   0.000   1.097   0.000   0.128
  0.000   0.000   0.000  -0.000   0.000  -0.000   0.000   0.000   0.000  -2.111   0.000   0.000   0.000  -0.000   0.905  -0.000
  0.000   0.000   0.000   0.000  -0.000   0.000   0.000   0.000  -0.090   0.000  -2.514   0.000   0.000   0.128  -0.000   0.997
  0.000   0.000   0.000   0.000  -0.000   0.000   0.912   0.000   0.000   0.000   0.000  -0.183  -0.000   0.000   0.000   0.000
  0.000   0.000   0.000   0.000   0.000   0.000  -0.000   0.706   0.000   0.000   0.000  -0.000   0.054   0.000   0.000  -0.000
  0.000   0.000   0.000   0.000   0.000   0.000   0.000   0.000   1.097  -0.000   0.128   0.000   0.000  -0.318   0.000  -0.144
 -0.000   0.000  -0.000   0.000   0.000  -0.000   0.000   0.000   0.000   0.905  -0.000   0.000   0.000   0.000  -0.151   0.000
  0.000  -0.000   0.000   0.000  -0.000   0.000   0.000   0.000   0.128  -0.000   0.997   0.000  -0.000  -0.144   0.000  -0.202
 -0.000  -0.000   0.000   0.000  -0.000   0.000   0.000   0.000  -0.011   0.000  -0.040   0.000   0.000   0.005   0.000   0.061
  0.000  -0.000   0.000   0.000   0.000   0.000   0.000   0.000  -0.004   0.000   0.010   0.000   0.000   0.001   0.000  -0.003


------------------------ aborting loop because EDIFF is reached ----------------------------------------





 total charge

# of ion       s       p       d       tot
------------------------------------------
    1        0.353   6.331   6.055  12.739
    2        0.351   6.331   6.028  12.710
    3        0.351   6.331   6.028  12.710
    4        0.356   6.338   6.019  12.713
    5        0.356   6.338   6.019  12.712
    6        0.352   6.334   6.026  12.712
    7        0.353   6.331   6.055  12.739
    8        0.351   6.331   6.028  12.710
    9        0.351   6.331   6.028  12.710
   10        0.778   0.701   8.036   9.515
   11        0.778   0.701   8.036   9.515
   12        0.763   0.719   8.033   9.515
--------------------------------------------------
tot          5.492  59.116  78.391 143.000



 magnetization (x)

# of ion       s       p       d       tot
------------------------------------------
    1       -0.006   0.009  -2.558  -2.554
    2        0.010   0.003   2.508   2.521
    3        0.010   0.003   2.509   2.522
    4       -0.015  -0.026  -2.543  -2.585
    5       -0.015  -0.026  -2.544  -2.585
    6        0.004  -0.016   2.732   2.720
    7       -0.006   0.009  -2.558  -2.554
    8        0.010   0.003   2.508   2.521
    9        0.010   0.003   2.509   2.522
   10        0.009   0.020  -0.118  -0.089
   11        0.009   0.020  -0.118  -0.090
   12       -0.037  -0.089   0.361   0.234
--------------------------------------------------
tot         -0.018  -0.086   2.688   2.584
 
    FORLOC:  cpu time      0.0009: real time      0.0009
    FORNL :  cpu time      0.5530: real time      0.5563
    STRESS:  cpu time      4.2134: real time      4.2510
    FORCOR:  cpu time      0.0201: real time      0.0202
    OFIELD:  cpu time      0.0001: real time      0.0001

  FORCE on cell =-STRESS in cart. coord.  units (eV):
  Direction    XX          YY          ZZ          XY          YZ          ZX
  --------------------------------------------------------------------------------------
  Alpha Z  1105.13071  1105.13071  1105.13071
  Ewald   -6045.75241 -6045.75241 -6073.27367    -0.00000    -0.00000     0.00000
  Hartree  1879.38862  1879.38862  1852.69785    -0.00000    -0.00000    -0.00000
  E(xc)    -943.87123  -943.87123  -943.79398    -0.00000     0.00000    -0.00000
  Local    1081.53479  1081.53479  1145.11096    -0.00000    -0.00000     0.00000
  n-local  -212.22676  -226.25243  -219.33340    14.68629     0.06682     0.04194
  augment  1440.61453  1440.61453  1434.61342    -0.00000     0.00000     0.00000
  Kinetic  1709.89752  1693.48292  1698.33375     2.80938     0.25923     0.60003
  Fock        0.00000     0.00000     0.00000     0.00000     0.00000     0.00000
  -------------------------------------------------------------------------------------
  Total      -0.50436    -0.50436    -0.51436     0.00000     0.00000     0.00000
  in kB      -5.24728    -5.24728    -5.35130     0.00000     0.00000     0.00000
  external pressure =       -5.28 kB  Pullay stress =        0.00 kB


 VOLUME and BASIS-vectors are now :
 -----------------------------------------------------------------------------
  energy-cutoff  :      520.00
  volume of cell :      154.00
      direct lattice vectors                 reciprocal lattice vectors
     3.698343487  0.000000000  0.000000000     0.270391326  0.000000000  0.000000000
     0.000000000  3.698343487  0.000000000     0.000000000  0.270391326  0.000000000
     0.000000000  0.000000000 11.259166265     0.000000000  0.000000000  0.088816523

  length of vectors
     3.698343487  3.698343487 11.259166265     0.270391326  0.270391326  0.088816523


 FORCES acting on ions:
    Electron-Ion                     Ewald-Force                    Non-Local-Force
 -----------------------------------------------------------------------------------------------
   -.956E-13 0.108E-11 -.197E+00   0.184E-13 -.195E-13 0.194E+00   -.589E-21 -.783E-21 0.274E-02
   -.910E-13 0.138E-12 -.170E+02   0.197E-13 0.106E-13 0.181E+02   -.728E-19 -.968E-18 -.119E+01
   -.940E-13 0.252E-11 0.171E+02   0.334E-14 -.341E-13 -.183E+02   0.281E-18 -.515E-20 0.119E+01
   0.110E-11 0.693E-11 0.884E+02   -.406E-13 0.103E-13 -.865E+02   0.594E-18 0.108E-17 -.193E+01
   0.110E-11 -.492E-11 -.878E+02   -.755E-14 0.799E-13 0.859E+02   -.416E-18 -.340E-18 0.192E+01
   0.112E-11 -.454E-11 -.451E+00   -.618E-14 -.376E-13 0.443E+00   0.488E-21 0.963E-22 0.846E-02
   0.110E-11 -.596E-13 -.197E+00   0.152E-13 -.205E-13 0.194E+00   0.560E-22 -.250E-21 0.274E-02
   0.107E-11 -.202E-12 -.170E+02   0.923E-14 0.145E-13 0.181E+02   0.108E-18 0.103E-18 -.119E+01
   0.107E-11 -.903E-13 0.171E+02   0.118E-13 -.253E-15 -.183E+02   0.150E-17 0.669E-18 0.119E+01
   -.527E-13 -.119E-12 0.214E+02   0.609E-13 0.111E-13 -.216E+02   0.614E-18 0.205E-18 0.210E+00
   -.550E-13 -.538E-13 -.214E+02   -.154E-13 -.696E-13 0.216E+02   0.836E-18 -.268E-18 -.206E+00
   -.531E-13 -.450E-13 -.458E-01   -.240E-13 0.118E-14 0.425E-01   -.728E-22 0.133E-20 -.109E-02
 -----------------------------------------------------------------------------------------------
   0.616E-11 0.657E-12 0.719E-03   0.449E-13 -.540E-13 -.423E-12   0.345E-17 0.480E-18 -.587E-03
 
 
 POSITION                                       TOTAL-FORCE (eV/Angst)
 -----------------------------------------------------------------------------------
      0.00000      1.84917      1.87643         0.000000     -0.000000     -0.000482
      0.00000      1.84917      5.62351         0.000000     -0.000000     -0.002303
      0.00000      1.84917      9.38881         0.000000      0.000000      0.001848
      1.84917      1.84917      0.06762        -0.000000     -0.000000      0.003095
      1.84917      1.84917      3.68605         0.000000      0.000000     -0.003547
      1.84917      1.84917      7.50572        -0.000000      0.000000      0.000044
      1.84917      0.00000      1.87643         0.000000     -0.000000     -0.000482
      1.84917      0.00000      5.62351         0.000000     -0.000000     -0.002303
      1.84917      0.00000      9.38881        -0.000000     -0.000000      0.001848
      0.00000      0.00000     11.23273         0.000000     -0.000000      0.002748
      0.00000      0.00000      3.77905         0.000000     -0.000000      0.003702
      0.00000      0.00000      7.50634         0.000000     -0.000000     -0.004168
 -----------------------------------------------------------------------------------
    total drift:                                0.000000      0.000000      0.000132


--------------------------------------------------------------------------------------------------------



  FREE ENERGIE OF THE ION-ELECTRON SYSTEM (eV)
  ---------------------------------------------------
  free  energy   TOTEN  =       -93.40915325 eV

  energy  without entropy=      -93.41819424  energy(sigma->0) =      -93.41216691
 


--------------------------------------------------------------------------------------------------------


    POTLOK:  cpu time      0.0350: real time      0.0353


--------------------------------------------------------------------------------------------------------




--------------------------------------------------------------------------------------------------------


  
 reached required accuracy - stopping structural energy minimisation
     LOOP+:  cpu time    148.5367: real time    151.0835
    4ORBIT:  cpu time      0.0000: real time      0.0000



 total charge

# of ion       s       p       d       tot
------------------------------------------
    1        0.353   6.331   6.055  12.739
    2        0.351   6.331   6.028  12.710
    3        0.351   6.331   6.028  12.710
    4        0.356   6.338   6.019  12.713
    5        0.356   6.338   6.019  12.712
    6        0.352   6.334   6.026  12.712
    7        0.353   6.331   6.055  12.739
    8        0.351   6.331   6.028  12.710
    9        0.351   6.331   6.028  12.710
   10        0.778   0.701   8.036   9.515
   11        0.778   0.701   8.036   9.515
   12        0.763   0.719   8.033   9.515
--------------------------------------------------
tot          5.492  59.116  78.391 143.000



 magnetization (x)

# of ion       s       p       d       tot
------------------------------------------
    1       -0.006   0.009  -2.558  -2.554
    2        0.010   0.003   2.508   2.521
    3        0.010   0.003   2.509   2.522
    4       -0.015  -0.026  -2.543  -2.585
    5       -0.015  -0.026  -2.544  -2.585
    6        0.004  -0.016   2.732   2.720
    7       -0.006   0.009  -2.558  -2.554
    8        0.010   0.003   2.508   2.521
    9        0.010   0.003   2.509   2.522
   10        0.009   0.020  -0.118  -0.089
   11        0.009   0.020  -0.118  -0.090
   12       -0.037  -0.089   0.361   0.234
--------------------------------------------------
tot         -0.018  -0.086   2.688   2.584
 

 total amount of memory used by VASP MPI-rank0   247121. kBytes
=======================================================================

   base      :      30000. kBytes
   nonl-proj :     102217. kBytes
   fftplans  :        888. kBytes
   grid      :       6813. kBytes
   one-center:        373. kBytes
   wavefun   :     106830. kBytes
 
  
  
 General timing and accounting informations for this job:
 ========================================================
  
                  Total CPU time used (sec):      167.968
                            User time (sec):      161.458
                          System time (sec):        6.510
                         Elapsed time (sec):      176.642
  
                   Maximum memory used (kb):      945488.
                   Average memory used (kb):          N/A
  
                          Minor page faults:       128987
                          Major page faults:          283
                 Voluntary context switches:        10694
