       N       E                     dE             d eps       ncg     rms          rms(c)
DAV:   1     0.177152074522E+04    0.17715E+04   -0.84871E+04 43040   0.177E+03
DAV:   2     0.651285963571E+01   -0.17650E+04   -0.16729E+04 43008   0.477E+02
DAV:   3    -0.102210845386E+03   -0.10872E+03   -0.10688E+03 50688   0.127E+02
DAV:   4    -0.103860148216E+03   -0.16493E+01   -0.16489E+01 45696   0.156E+01
DAV:   5    -0.103894064209E+03   -0.33916E-01   -0.33914E-01 52800   0.216E+00    0.358E+01
DAV:   6    -0.102005227322E+03    0.18888E+01   -0.66309E+01 48480   0.525E+01    0.390E+01
DAV:   7    -0.950581668339E+02    0.69471E+01   -0.82113E+01 49440   0.382E+01    0.182E+01
DAV:   8    -0.957232897959E+02   -0.66512E+00   -0.12410E+01 52768   0.185E+01    0.212E+01
DAV:   9    -0.938594485240E+02    0.18638E+01   -0.16982E+01 51808   0.154E+01    0.115E+01
DAV:  10    -0.933353492135E+02    0.52410E+00   -0.23011E+00 50656   0.850E+00    0.629E+00
DAV:  11    -0.934863081043E+02   -0.15096E+00   -0.17560E+00 50944   0.867E+00    0.777E+00
DAV:  12    -0.932529548205E+02    0.23335E+00   -0.95270E-01 50528   0.609E+00    0.310E+00
DAV:  13    -0.932831643894E+02   -0.30210E-01   -0.24681E-01 49760   0.429E+00    0.396E+00
DAV:  14    -0.932302072800E+02    0.52957E-01   -0.15523E-01 49952   0.313E+00    0.861E-01
DAV:  15    -0.932328027408E+02   -0.25955E-02   -0.11290E-02 52224   0.689E-01    0.427E-01
DAV:  16    -0.932336245131E+02   -0.82177E-03   -0.29287E-03 52192   0.316E-01    0.312E-01
DAV:  17    -0.932333556956E+02    0.26882E-03   -0.12477E-03 50784   0.253E-01    0.917E-02
DAV:  18    -0.932333986510E+02   -0.42955E-04   -0.16084E-04 50496   0.647E-02    0.483E-02
DAV:  19    -0.932334487805E+02   -0.50130E-04   -0.62061E-05 50848   0.471E-02    0.490E-02
DAV:  20    -0.932334558939E+02   -0.71133E-05   -0.30072E-05 51168   0.463E-02    0.172E-02
DAV:  21    -0.932334743612E+02   -0.18467E-04   -0.65392E-06 48000   0.213E-02    0.696E-03
DAV:  22    -0.932334801473E+02   -0.57861E-05   -0.72040E-07 31168   0.674E-03    0.679E-03
DAV:  23    -0.932334817348E+02   -0.15875E-05    0.42709E-07 26816   0.424E-03    0.429E-03
DAV:  24    -0.932334823737E+02   -0.63889E-06    0.89773E-07 26848   0.245E-03
   1 F= -.93233482E+02 E0= -.93233482E+02  d E =0.000000E+00  mag=    26.0371
