       N       E                     dE             d eps       ncg     rms          ort
DAV:   1     0.177152166579E+04    0.17715E+04   -0.91857E+04 10752   0.195E+03
DAV:   2     0.651293489615E+01   -0.17650E+04   -0.16729E+04 10752   0.477E+02
DAV:   3    -0.102209739751E+03   -0.10872E+03   -0.10688E+03 10752   0.127E+02
DAV:   4    -0.103859171356E+03   -0.16494E+01   -0.16490E+01 10752   0.156E+01
DAV:   5    -0.103893089020E+03   -0.33918E-01   -0.33917E-01 10752   0.216E+00
SDA:   6    -0.544573763359E+02    0.49436E+02   -0.33917E-01 10752   0.261E+03 0.000E+00
CGA:   7    -0.867281132179E+02   -0.32271E+02   -0.31795E+02 10752   0.200E+02 0.307E+01
CGA:   8    -0.886053121761E+02   -0.18772E+01   -0.19232E+01 10752   0.561E+02-0.278E+00
CGA:   9    -0.906933554884E+02   -0.20880E+01   -0.13798E+01 10752   0.174E+02 0.290E+02
CGA:  10    -0.910917038918E+02   -0.39835E+00   -0.41348E+00 10752   0.459E+01-0.680E+00
CGA:  11    -0.924416921073E+02   -0.13500E+01   -0.13398E+01 10752   0.501E+01 0.785E-01
CGA:  12    -0.926609777253E+02   -0.21929E+00   -0.22174E+00 10752   0.455E+01-0.460E-01
CGA:  13    -0.930826505050E+02   -0.42167E+00   -0.42441E+00 10752   0.502E+00-0.345E-01
CGA:  14    -0.931175765213E+02   -0.34926E-01   -0.35159E-01 10752   0.687E+00-0.219E-02
CGA:  15    -0.931558501342E+02   -0.38274E-01   -0.38934E-01 10752   0.388E+00-0.856E-02
CGA:  16    -0.931997061104E+02   -0.43856E-01   -0.44005E-01 10752   0.124E+00 0.325E-04
CGA:  17    -0.932042369460E+02   -0.45308E-02   -0.45724E-02 10752   0.756E-01-0.998E-03
CGA:  18    -0.932146015692E+02   -0.10365E-01   -0.10370E-01 10752   0.861E-01 0.154E-03
CGA:  19    -0.932225567752E+02   -0.79552E-02   -0.79854E-02 10752   0.803E-01-0.352E-04
CGA:  20    -0.932255323516E+02   -0.29756E-02   -0.29854E-02 10752   0.300E-01-0.177E-03
CGA:  21    -0.932317583548E+02   -0.62260E-02   -0.62182E-02 10752   0.313E-01 0.103E-03
CGA:  22    -0.932328920073E+02   -0.11337E-02   -0.11377E-02 10752   0.169E-01-0.623E-04
CGA:  23    -0.932360304336E+02   -0.31384E-02   -0.31338E-02 10752   0.836E-02 0.835E-04
CGA:  24    -0.932363107565E+02   -0.28032E-03   -0.27934E-03 10752   0.342E-02-0.123E-04
CGA:  25    -0.932367163169E+02   -0.40556E-03   -0.40432E-03 10752   0.301E-02-0.650E-04
CGA:  26    -0.932369509124E+02   -0.23460E-03   -0.23139E-03 10752   0.320E-02-0.570E-04
CGA:  27    -0.932370751942E+02   -0.12428E-03   -0.12113E-03 10752   0.298E-03-0.324E-04
CGA:  28    -0.932371126222E+02   -0.37428E-04   -0.37414E-04 10752   0.618E-03-0.929E-05
CGA:  29    -0.932371398343E+02   -0.27212E-04   -0.26590E-04 10752   0.212E-03-0.664E-05
CGA:  30    -0.932371600883E+02   -0.20254E-04   -0.20056E-04 10752   0.125E-03-0.644E-05
CGA:  31    -0.932371717143E+02   -0.11626E-04   -0.11477E-04 10752   0.226E-03-0.485E-05
CGA:  32    -0.932371817042E+02   -0.99898E-05   -0.96648E-05 10752   0.255E-04-0.387E-05
CGA:  33    -0.932371886494E+02   -0.69452E-05   -0.66279E-05 10752   0.568E-04 0.243E-05
CGA:  34    -0.932371908598E+02   -0.22105E-05   -0.22618E-05 10752   0.211E-04 0.810E-06
CGA:  35    -0.932371925790E+02   -0.17191E-05   -0.17154E-05 10752   0.105E-04 0.136E-06
CGA:  36    -0.932371935013E+02   -0.92227E-06   -0.90075E-06 10752   0.194E-04-0.468E-06
CGA:  37    -0.932371948031E+02   -0.13018E-05   -0.12430E-05 10752   0.355E-05-0.105E-05
CGA:  38    -0.932371950744E+02   -0.27135E-06   -0.27061E-06 10752   0.468E-05 0.118E-06
   1 F= -.93237195E+02 E0= -.93233796E+02  d E =-.932372E+02  mag=    26.2952
