 vasp.6.4.3 19Mar24 (build Mar 26 2024 14:05:37) complex                        
  
 executed on             LinuxIFC date 2024.12.16  07:12:33
 running  128 mpi-ranks, on    1 nodes
 distrk:  each k-point on   32 cores,    4 groups
 distr:  one band on NCORE=   1 cores,   32 groups


--------------------------------------------------------------------------------------------------------


 INCAR:
   ALGO = Normal
   EDIFF = 1e-06
   EDIFFG = -0.01
   ENCUT = 520
   GGA = Pe
   IBRION = -1
   ISIF = 4
   ISMEAR = -5
   ISPIN = 2
   KPAR = 4
   LCHARG = True
   LORBIT = 11
   LREAL = False
   LWAVE = False
   MAGMOM = 1*2.843 1*2.841 1*2.843 1*2.845 2*2.842 1*2.843 1*2.841 1*2.843 3*0.304
   NELM = 200
   NSW = 0
   PREC = Accurate
   SIGMA = 0.2

 POTCAR:    PAW_PBE Fe_pv 02Aug2007               
 POTCAR:    PAW_PBE Pt 04Feb2005                  
 -----------------------------------------------------------------------------
|                                                                             |
|           W    W    AA    RRRRR   N    N  II  N    N   GGGG   !!!           |
|           W    W   A  A   R    R  NN   N  II  NN   N  G    G  !!!           |
|           W    W  A    A  R    R  N N  N  II  N N  N  G       !!!           |
|           W WW W  AAAAAA  RRRRR   N  N N  II  N  N N  G  GGG   !            |
|           WW  WW  A    A  R   R   N   NN  II  N   NN  G    G                |
|           W    W  A    A  R    R  N    N  II  N    N   GGGG   !!!           |
|                                                                             |
|     For optimal performance we recommend to set                             |
|       NCORE = 2 up to number-of-cores-per-socket                            |
|     NCORE specifies how many cores store one orbital (NPAR=cpu/NCORE).      |
|     This setting can greatly improve the performance of VASP for DFT.       |
|     The default, NCORE=1 might be grossly inefficient on modern             |
|     multi-core architectures or massively parallel machines. Do your        |
|     own testing! More info at https://www.vasp.at/wiki/index.php/NCORE      |
|     Unfortunately you need to use the default for GW and RPA                |
|     calculations (for HF NCORE is supported but not extensively tested      |
|     yet).                                                                   |
|                                                                             |
 -----------------------------------------------------------------------------

 POTCAR:    PAW_PBE Fe_pv 02Aug2007               
   SHA256 =  5d22e414b1f82158bf2c7ecb8b97b28fd0923e48cadc1c3bf74d524558f5dd32 Fe_pv/POTCAR          
   COPYR  = (c) Copyright 02Aug2007 Georg Kresse                                                    
   COPYR  = This file is part of the software VASP. Any use, copying, and all other rights are regul
   COPYR  = If you do not have a valid VASP license, you may not use, copy or distribute this file. 
   VRHFIN =Fe:  3pd7s1                                                                              
   LEXCH  = PE                                                                                      
   EATOM  =  2457.4239 eV,  180.6156 Ry                                                             
                                                                                                    
   TITEL  = PAW_PBE Fe_pv 02Aug2007                                                                 
   LULTRA =        F    use ultrasoft PP ?                                                          
   IUNSCR =        1    unscreen: 0-lin 1-nonlin 2-no                                               
   RPACOR =    1.750    partial core radius                                                         
   POMASS =   55.847; ZVAL   =   14.000    mass and valenz                                          
   RCORE  =    2.200    outmost cutoff radius                                                       
   RWIGS  =    2.200; RWIGS  =    1.164    wigner-seitz radius (au A)                               
   ENMAX  =  293.238; ENMIN  =  219.928 eV                                                          
   ICORE  =        3    local potential                                                             
   LCOR   =        T    correct aug charges                                                         
   LPAW   =        T    paw PP                                                                      
   EAUG   =  578.342                                                                                
   DEXC   =    0.000                                                                                
   RMAX   =    2.249    core radius for proj-oper                                                   
   RAUG   =    1.300    factor for augmentation sphere                                              
   RDEP   =    2.296    radius for radial grids                                                     
   RDEPT  =    1.766    core radius for aug-charge                                                  
                                                                                                    
   Atomic configuration                                                                             
    8 entries                                                                                       
     n  l   j            E        occ.                                                              
     1  0  0.50     -6993.8440   2.0000                                                             
     2  0  0.50      -814.6047   2.0000                                                             
     2  1  1.50      -693.3689   6.0000                                                             
     3  0  0.50       -89.4732   2.0000                                                             
     3  1  1.50       -55.6373   6.0000                                                             
     3  2  2.50        -3.8151   7.0000                                                             
     4  0  0.50        -4.2551   1.0000                                                             
     4  3  2.50        -1.3606   0.0000                                                             
   Description                                                                                      
     l       E           TYP  RCUT    TYP  RCUT                                                     
     1    -55.6372668     23  2.000                                                                 
     1     -5.4423304     23  2.000                                                                 
     2     -3.8151096     23  2.200                                                                 
     2     -5.1756922     23  2.200                                                                 
     0     -4.2550951     23  2.200                                                                 
     0     27.2116520     23  2.200                                                                 
     3     -1.3605826     23  2.200                                                                 
  local pseudopotential read in
  partial core-charges read in
  partial kinetic energy density read in
  atomic valenz-charges read in
  non local Contribution for L=           1  read in
    real space projection operators read in
  non local Contribution for L=           1  read in
    real space projection operators read in
  non local Contribution for L=           2  read in
    real space projection operators read in
  non local Contribution for L=           2  read in
    real space projection operators read in
  non local Contribution for L=           0  read in
    real space projection operators read in
  non local Contribution for L=           0  read in
    real space projection operators read in
    PAW grid and wavefunctions read in
 
   number of l-projection  operators is LMAX  =           6
   number of lm-projection operators is LMMAX =          18
 
 POTCAR:    PAW_PBE Pt 04Feb2005                  
   SHA256 =  3ed90460adef76debcff1cfb73ee1349b515b1a3db03439735b44de3a8db7dc8 Pt/POTCAR             
   COPYR  = (c) Copyright 04Feb2005 Georg Kresse                                                    
   COPYR  = This file is part of the software VASP. Any use, copying, and all other rights are regul
   COPYR  = If you do not have a valid VASP license, you may not use, copy or distribute this file. 
   VRHFIN =Pt: s1d9                                                                                 
   LEXCH  = PE                                                                                      
   EATOM  =   729.1176 eV,   53.5886 Ry                                                             
                                                                                                    
   TITEL  = PAW_PBE Pt 04Feb2005                                                                    
   LULTRA =        F    use ultrasoft PP ?                                                          
   IUNSCR =        1    unscreen: 0-lin 1-nonlin 2-no                                               
   RPACOR =    2.330    partial core radius                                                         
   POMASS =  195.080; ZVAL   =   10.000    mass and valenz                                          
   RCORE  =    2.600    outmost cutoff radius                                                       
   RWIGS  =    2.750; RWIGS  =    1.455    wigner-seitz radius (au A)                               
   ENMAX  =  230.283; ENMIN  =  172.712 eV                                                          
   ICORE  =        3    local potential                                                             
   LCOR   =        T    correct aug charges                                                         
   LPAW   =        T    paw PP                                                                      
   EAUG   =  358.966                                                                                
   DEXC   =    0.000                                                                                
   RMAX   =    2.658    core radius for proj-oper                                                   
   RAUG   =    1.300    factor for augmentation sphere                                              
   RDEP   =    2.761    radius for radial grids                                                     
   RDEPT  =    2.203    core radius for aug-charge                                                  
                                                                                                    
   Atomic configuration                                                                             
   16 entries                                                                                       
     n  l   j            E        occ.                                                              
     1  0  0.50    -78401.1885   2.0000                                                             
     2  0  0.50    -13770.7750   2.0000                                                             
     2  1  1.50    -11931.0468   6.0000                                                             
     3  0  0.50     -3234.7234   2.0000                                                             
     3  1  1.50     -2699.2216   6.0000                                                             
     3  2  2.50     -2119.5714  10.0000                                                             
     4  0  0.50      -695.1528   2.0000                                                             
     4  1  1.50      -519.6034   6.0000                                                             
     4  2  2.50      -306.6786  10.0000                                                             
     4  3  3.50       -70.1041  14.0000                                                             
     5  0  0.50      -101.7747   2.0000                                                             
     5  1  1.50       -55.9873   6.0000                                                             
     5  2  2.50        -6.1423   9.0000                                                             
     6  0  0.50        -5.6573   1.0000                                                             
     6  1  1.50        -6.8029   0.0000                                                             
     5  3  2.50        -1.3606   0.0000                                                             
   Description                                                                                      
     l       E           TYP  RCUT    TYP  RCUT                                                     
     2     -6.1423404     23  2.500                                                                 
     2     -7.5029230     23  2.500                                                                 
     0     -5.6573207     23  2.500                                                                 
     0      0.7416693     23  2.500                                                                 
     1     -2.7211652     23  2.600                                                                 
     1     20.4087390     23  2.600                                                                 
     3     -1.3605826     23  2.500                                                                 
  local pseudopotential read in
  partial core-charges read in
  partial kinetic energy density read in
  atomic valenz-charges read in
  non local Contribution for L=           2  read in
    real space projection operators read in
  non local Contribution for L=           2  read in
    real space projection operators read in
  non local Contribution for L=           0  read in
    real space projection operators read in
  non local Contribution for L=           0  read in
    real space projection operators read in
  non local Contribution for L=           1  read in
    real space projection operators read in
  non local Contribution for L=           1  read in
    real space projection operators read in
    PAW grid and wavefunctions read in
 
   number of l-projection  operators is LMAX  =           6
   number of lm-projection operators is LMMAX =          18
 
  PAW_PBE Fe_pv 02Aug2007               :
 energy of atom  1       EATOM=-2457.4239
 kinetic energy error for atom=    0.0062 (will be added to EATOM!!)
  PAW_PBE Pt 04Feb2005                  :
 energy of atom  2       EATOM= -729.1176
 kinetic energy error for atom=    0.0032 (will be added to EATOM!!)
 
 
 POSCAR: Fe9 Pt3
  positions in direct lattice
  velocities in cartesian coordinates


 exchange-correlation table for PE
   RHO(1)=    0.500       N(1)  =     2000
   RHO(2)=  100.500       N(2)  =     4000
 


--------------------------------------------------------------------------------------------------------


 ion  position               nearest neighbor table
   1  0.000  0.500  0.167-   7 2.69   7 2.69   7 2.69   7 2.69  11 2.69  11 2.69   5 2.70   5 2.70
                             4 2.70  10 2.70  10 2.70   4 2.70
   2  0.000  0.500  0.500-   5 2.69   6 2.69   5 2.69   6 2.69   8 2.69   8 2.69   8 2.69   8 2.69
                            12 2.69  11 2.69  11 2.69  12 2.69
   3  0.000  0.500  0.833-   9 2.69   9 2.69   9 2.69   9 2.69  12 2.69  12 2.69   6 2.70   6 2.70
                             4 2.70  10 2.70  10 2.70   4 2.70
   4  0.500  0.500  0.000-  10 2.69  10 2.69  10 2.69  10 2.69   1 2.70   7 2.70   9 2.70   3 2.70
                             1 2.70   3 2.70   7 2.70   9 2.70
   5  0.500  0.500  0.333-   2 2.69   8 2.69   8 2.69   2 2.69  11 2.69  11 2.69  11 2.69  11 2.69
                             1 2.70   7 2.70   1 2.70   7 2.70
   6  0.500  0.500  0.667-   2 2.69   8 2.69   8 2.69   2 2.69  12 2.69  12 2.69  12 2.69  12 2.69
                             9 2.70   3 2.70   9 2.70   3 2.70
   7  0.500  0.000  0.167-   1 2.69   1 2.69   1 2.69   1 2.69  11 2.69  11 2.69   5 2.70   5 2.70
                            10 2.70  10 2.70   4 2.70   4 2.70
   8  0.500  0.000  0.500-   5 2.69   6 2.69   5 2.69   6 2.69   2 2.69   2 2.69   2 2.69   2 2.69
                            12 2.69  11 2.69  12 2.69  11 2.69
   9  0.500  0.000  0.833-   3 2.69   3 2.69   3 2.69   3 2.69  12 2.69  12 2.69   6 2.70   6 2.70
                            10 2.70  10 2.70   4 2.70   4 2.70
  10  0.000  0.000  0.000-   4 2.69   4 2.69   4 2.69   4 2.69   9 2.70   1 2.70   3 2.70   3 2.70
                             1 2.70   7 2.70   9 2.70   7 2.70
  11  0.000  0.000  0.333-   5 2.69   5 2.69   5 2.69   5 2.69   2 2.69   8 2.69   8 2.69   2 2.69
                             1 2.69   7 2.69   7 2.69   1 2.69
  12  0.000  0.000  0.667-   6 2.69   6 2.69   6 2.69   6 2.69   2 2.69   8 2.69   8 2.69   2 2.69
                             3 2.69   3 2.69   9 2.69   9 2.69
 
  LATTYP: Found a simple tetragonal cell.
 ALAT       =     3.8100057154
 C/A-ratio  =     3.0014506464
  
  Lattice vectors:
  
 A1 = (   3.8100057154,   0.0000000000,   0.0000000000)
 A2 = (   0.0000000000,   3.8100057154,   0.0000000000)
 A3 = (   0.0000000000,   0.0000000000,  11.4355441175)


Analysis of symmetry for initial positions (statically):
=====================================================================
 Subroutine PRICEL returns:
 Original cell was already a primitive cell.
 

 Routine SETGRP: Setting up the symmetry group for a 
 simple tetragonal supercell.


 Subroutine GETGRP returns: Found 16 space group operations
 (whereof 16 operations were pure point group operations)
 out of a pool of 16 trial point group operations.


The static configuration has the point symmetry D_4h.


Analysis of symmetry for dynamics (positions and initial velocities):
=====================================================================
 Subroutine PRICEL returns:
 Original cell was already a primitive cell.
 

 Routine SETGRP: Setting up the symmetry group for a 
 simple tetragonal supercell.


 Subroutine GETGRP returns: Found 16 space group operations
 (whereof 16 operations were pure point group operations)
 out of a pool of 16 trial point group operations.


The dynamic configuration has the point symmetry D_4h.


Analysis of structural, dynamic, and magnetic symmetry:
=====================================================================
 Subroutine PRICEL returns:
 Original cell was already a primitive cell.
 

 Routine SETGRP: Setting up the symmetry group for a 
 simple tetragonal supercell.


 Subroutine GETGRP returns: Found 16 space group operations
 (whereof 16 operations were pure point group operations)
 out of a pool of 16 trial point group operations.


The overall configuration has the point symmetry D_4h.


 Subroutine INISYM returns: Found 16 space group operations
 (whereof 16 operations are pure point group operations),
 and found     1 'primitive' translations


----------------------------------------------------------------------------------------

                                     Primitive cell                                     

  volume of cell :     166.0000

  direct lattice vectors                    reciprocal lattice vectors
     3.810005715  0.000000000  0.000000000     0.262466798  0.000000000  0.000000000
     0.000000000  3.810005715  0.000000000     0.000000000  0.262466798  0.000000000
     0.000000000  0.000000000 11.435544117     0.000000000  0.000000000  0.087446648

  length of vectors
     3.810005715  3.810005715 11.435544117     0.262466798  0.262466798  0.087446648

  position of ions in fractional coordinates (direct lattice)
     0.000000000  0.500000000  0.166773688
     0.000000000  0.500000000  0.500000000
     0.000000000  0.500000000  0.833226312
     0.500000000  0.500000000  0.000000000
     0.500000000  0.500000000  0.333477095
     0.500000000  0.500000000  0.666522905
     0.500000000  0.000000000  0.166773688
     0.500000000  0.000000000  0.500000000
     0.500000000  0.000000000  0.833226312
     0.000000000  0.000000000  0.000000000
     0.000000000  0.000000000  0.333408407
     0.000000000  0.000000000  0.666591593

  ion indices of the primitive-cell ions
   primitive index   ion index
                 1           1
                 2           2
                 3           3
                 4           4
                 5           5
                 6           6
                 7           7
                 8           8
                 9           9
                10          10
                11          11
                12          12

----------------------------------------------------------------------------------------

 
 
 KPOINTS: pymatgen with grid density = 8800 / numb

Automatic generation of k-mesh.
 Grid dimensions read from file:
 generate k-points for:   13   13    4

 Generating k-lattice:

  Cartesian coordinates                     Fractional coordinates (reciprocal lattice)
     0.020189754  0.000000000  0.000000000     0.076923077  0.000000000  0.000000000
     0.000000000  0.020189754  0.000000000     0.000000000  0.076923077  0.000000000
     0.000000000  0.000000000  0.021861662     0.000000000  0.000000000  0.250000000

  Length of vectors
     0.020189754  0.020189754  0.021861662

  Shift w.r.t. Gamma in fractional coordinates (k-lattice)
     0.000000000  0.000000000  0.000000000

 TETIRR: Found   1010 inequivalent tetrahedra from     4056
 
 Subroutine IBZKPT returns following result:
 ===========================================
 
 Found     84 irreducible k-points:
 
 Following reciprocal coordinates:
            Coordinates               Weight
  0.000000  0.000000  0.000000      1.000000
  0.076923  0.000000  0.000000      4.000000
  0.153846  0.000000  0.000000      4.000000
  0.230769  0.000000  0.000000      4.000000
  0.307692  0.000000  0.000000      4.000000
  0.384615  0.000000  0.000000      4.000000
  0.461538  0.000000  0.000000      4.000000
  0.076923  0.076923  0.000000      4.000000
  0.153846  0.076923  0.000000      8.000000
  0.230769  0.076923  0.000000      8.000000
  0.307692  0.076923  0.000000      8.000000
  0.384615  0.076923  0.000000      8.000000
  0.461538  0.076923  0.000000      8.000000
  0.153846  0.153846  0.000000      4.000000
  0.230769  0.153846  0.000000      8.000000
  0.307692  0.153846  0.000000      8.000000
  0.384615  0.153846  0.000000      8.000000
  0.461538  0.153846  0.000000      8.000000
  0.230769  0.230769  0.000000      4.000000
  0.307692  0.230769  0.000000      8.000000
  0.384615  0.230769  0.000000      8.000000
  0.461538  0.230769  0.000000      8.000000
  0.307692  0.307692  0.000000      4.000000
  0.384615  0.307692  0.000000      8.000000
  0.461538  0.307692  0.000000      8.000000
  0.384615  0.384615  0.000000      4.000000
  0.461538  0.384615  0.000000      8.000000
  0.461538  0.461538  0.000000      4.000000
  0.000000  0.000000  0.250000      2.000000
  0.076923  0.000000  0.250000      8.000000
  0.153846  0.000000  0.250000      8.000000
  0.230769  0.000000  0.250000      8.000000
  0.307692  0.000000  0.250000      8.000000
  0.384615  0.000000  0.250000      8.000000
  0.461538  0.000000  0.250000      8.000000
  0.076923  0.076923  0.250000      8.000000
  0.153846  0.076923  0.250000     16.000000
  0.230769  0.076923  0.250000     16.000000
  0.307692  0.076923  0.250000     16.000000
  0.384615  0.076923  0.250000     16.000000
  0.461538  0.076923  0.250000     16.000000
  0.153846  0.153846  0.250000      8.000000
  0.230769  0.153846  0.250000     16.000000
  0.307692  0.153846  0.250000     16.000000
  0.384615  0.153846  0.250000     16.000000
  0.461538  0.153846  0.250000     16.000000
  0.230769  0.230769  0.250000      8.000000
  0.307692  0.230769  0.250000     16.000000
  0.384615  0.230769  0.250000     16.000000
  0.461538  0.230769  0.250000     16.000000
  0.307692  0.307692  0.250000      8.000000
  0.384615  0.307692  0.250000     16.000000
  0.461538  0.307692  0.250000     16.000000
  0.384615  0.384615  0.250000      8.000000
  0.461538  0.384615  0.250000     16.000000
  0.461538  0.461538  0.250000      8.000000
  0.000000  0.000000  0.500000      1.000000
  0.076923  0.000000  0.500000      4.000000
  0.153846  0.000000  0.500000      4.000000
  0.230769  0.000000  0.500000      4.000000
  0.307692  0.000000  0.500000      4.000000
  0.384615  0.000000  0.500000      4.000000
  0.461538  0.000000  0.500000      4.000000
  0.076923  0.076923  0.500000      4.000000
  0.153846  0.076923  0.500000      8.000000
  0.230769  0.076923  0.500000      8.000000
  0.307692  0.076923  0.500000      8.000000
  0.384615  0.076923  0.500000      8.000000
  0.461538  0.076923  0.500000      8.000000
  0.153846  0.153846  0.500000      4.000000
  0.230769  0.153846  0.500000      8.000000
  0.307692  0.153846  0.500000      8.000000
  0.384615  0.153846  0.500000      8.000000
  0.461538  0.153846  0.500000      8.000000
  0.230769  0.230769  0.500000      4.000000
  0.307692  0.230769  0.500000      8.000000
  0.384615  0.230769  0.500000      8.000000
  0.461538  0.230769  0.500000      8.000000
  0.307692  0.307692  0.500000      4.000000
  0.384615  0.307692  0.500000      8.000000
  0.461538  0.307692  0.500000      8.000000
  0.384615  0.384615  0.500000      4.000000
  0.461538  0.384615  0.500000      8.000000
  0.461538  0.461538  0.500000      4.000000
 
 Following cartesian coordinates:
            Coordinates               Weight
  0.000000  0.000000  0.000000      1.000000
  0.020190  0.000000  0.000000      4.000000
  0.040380  0.000000  0.000000      4.000000
  0.060569  0.000000  0.000000      4.000000
  0.080759  0.000000  0.000000      4.000000
  0.100949  0.000000  0.000000      4.000000
  0.121139  0.000000  0.000000      4.000000
  0.020190  0.020190  0.000000      4.000000
  0.040380  0.020190  0.000000      8.000000
  0.060569  0.020190  0.000000      8.000000
  0.080759  0.020190  0.000000      8.000000
  0.100949  0.020190  0.000000      8.000000
  0.121139  0.020190  0.000000      8.000000
  0.040380  0.040380  0.000000      4.000000
  0.060569  0.040380  0.000000      8.000000
  0.080759  0.040380  0.000000      8.000000
  0.100949  0.040380  0.000000      8.000000
  0.121139  0.040380  0.000000      8.000000
  0.060569  0.060569  0.000000      4.000000
  0.080759  0.060569  0.000000      8.000000
  0.100949  0.060569  0.000000      8.000000
  0.121139  0.060569  0.000000      8.000000
  0.080759  0.080759  0.000000      4.000000
  0.100949  0.080759  0.000000      8.000000
  0.121139  0.080759  0.000000      8.000000
  0.100949  0.100949  0.000000      4.000000
  0.121139  0.100949  0.000000      8.000000
  0.121139  0.121139  0.000000      4.000000
  0.000000  0.000000  0.021862      2.000000
  0.020190  0.000000  0.021862      8.000000
  0.040380  0.000000  0.021862      8.000000
  0.060569  0.000000  0.021862      8.000000
  0.080759  0.000000  0.021862      8.000000
  0.100949  0.000000  0.021862      8.000000
  0.121139  0.000000  0.021862      8.000000
  0.020190  0.020190  0.021862      8.000000
  0.040380  0.020190  0.021862     16.000000
  0.060569  0.020190  0.021862     16.000000
  0.080759  0.020190  0.021862     16.000000
  0.100949  0.020190  0.021862     16.000000
  0.121139  0.020190  0.021862     16.000000
  0.040380  0.040380  0.021862      8.000000
  0.060569  0.040380  0.021862     16.000000
  0.080759  0.040380  0.021862     16.000000
  0.100949  0.040380  0.021862     16.000000
  0.121139  0.040380  0.021862     16.000000
  0.060569  0.060569  0.021862      8.000000
  0.080759  0.060569  0.021862     16.000000
  0.100949  0.060569  0.021862     16.000000
  0.121139  0.060569  0.021862     16.000000
  0.080759  0.080759  0.021862      8.000000
  0.100949  0.080759  0.021862     16.000000
  0.121139  0.080759  0.021862     16.000000
  0.100949  0.100949  0.021862      8.000000
  0.121139  0.100949  0.021862     16.000000
  0.121139  0.121139  0.021862      8.000000
  0.000000  0.000000  0.043723      1.000000
  0.020190  0.000000  0.043723      4.000000
  0.040380  0.000000  0.043723      4.000000
  0.060569  0.000000  0.043723      4.000000
  0.080759  0.000000  0.043723      4.000000
  0.100949  0.000000  0.043723      4.000000
  0.121139  0.000000  0.043723      4.000000
  0.020190  0.020190  0.043723      4.000000
  0.040380  0.020190  0.043723      8.000000
  0.060569  0.020190  0.043723      8.000000
  0.080759  0.020190  0.043723      8.000000
  0.100949  0.020190  0.043723      8.000000
  0.121139  0.020190  0.043723      8.000000
  0.040380  0.040380  0.043723      4.000000
  0.060569  0.040380  0.043723      8.000000
  0.080759  0.040380  0.043723      8.000000
  0.100949  0.040380  0.043723      8.000000
  0.121139  0.040380  0.043723      8.000000
  0.060569  0.060569  0.043723      4.000000
  0.080759  0.060569  0.043723      8.000000
  0.100949  0.060569  0.043723      8.000000
  0.121139  0.060569  0.043723      8.000000
  0.080759  0.080759  0.043723      4.000000
  0.100949  0.080759  0.043723      8.000000
  0.121139  0.080759  0.043723      8.000000
  0.100949  0.100949  0.043723      4.000000
  0.121139  0.100949  0.043723      8.000000
  0.121139  0.121139  0.043723      4.000000
 


--------------------------------------------------------------------------------------------------------




 Dimension of arrays:
   k-points           NKPTS =     84   k-points in BZ     NKDIM =     84   number of bands    NBANDS=    128
   number of dos      NEDOS =    301   number of ions     NIONS =     12
   non local maximal  LDIM  =      6   non local SUM 2l+1 LMDIM =     18
   total plane-waves  NPLWV =  70560
   max r-space proj   IRMAX =      1   max aug-charges    IRDMAX=  25941
   dimension x,y,z NGX =    28 NGY =   28 NGZ =   90
   dimension x,y,z NGXF=    56 NGYF=   56 NGZF=  180
   support grid    NGXF=    56 NGYF=   56 NGZF=  180
   ions per type =               9   3
   NGX,Y,Z   is equivalent  to a cutoff of  12.22, 12.22, 13.08 a.u.
   NGXF,Y,Z  is equivalent  to a cutoff of  24.44, 24.44, 26.17 a.u.

 SYSTEM =  unknown system                          
 POSCAR =  Fe9 Pt3                                 

 Startparameter for this run:
   NWRITE =      2    write-flag & timer
   PREC   = accura    normal or accurate (medium, high low for compatibility)
   ISTART =      0    job   : 0-new  1-cont  2-samecut
   ICHARG =      2    charge: 1-file 2-atom 10-const
   ISPIN  =      2    spin polarized calculation?
   LNONCOLLINEAR =      F non collinear calculations
   LSORBIT =      F    spin-orbit coupling
   INIWAV =      1    electr: 0-lowe 1-rand  2-diag
   LASPH  =      F    aspherical Exc in radial PAW
 Electronic Relaxation 1
   ENCUT  =  520.0 eV  38.22 Ry    6.18 a.u.   7.08  7.08 21.26*2*pi/ulx,y,z
   ENINI  =  520.0     initial cutoff
   ENAUG  =  578.3 eV  augmentation charge cutoff
   NELM   =    200;   NELMIN=  2; NELMDL=  0     # of ELM steps 
   EDIFF  = 0.1E-05   stopping-criterion for ELM
   LREAL  =      F    real-space projection
   NLSPLINE    = F    spline interpolate recip. space projectors
   LCOMPAT=      F    compatible to vasp.4.4
   GGA_COMPAT  = T    GGA compatible to vasp.4.4-vasp.4.6
   LMAXPAW     = -100 max onsite density
   LMAXMIX     =    2 max onsite mixed and CHGCAR
   VOSKOWN=      0    Vosko Wilk Nusair interpolation
   ROPT   =    0.00000   0.00000
 Ionic relaxation
   EDIFFG = -.1E-01   stopping-criterion for IOM
   NSW    =      0    number of steps for IOM
   NBLOCK =      1;   KBLOCK =      1    inner block; outer block 
   IBRION =     -1    ionic relax: 0-MD 1-quasi-New 2-CG
   NFREE  =      0    steps in history (QN), initial steepest desc. (CG)
   ISIF   =      4    stress and relaxation
   IWAVPR =     10    prediction:  0-non 1-charg 2-wave 3-comb
   ISYM   =      2    0-nonsym 1-usesym 2-fastsym
   LCORR  =      T    Harris-Foulkes like correction to forces

   POTIM  = 0.5000    time-step for ionic-motion
   TEIN   =    0.0    initial temperature
   TEBEG  =    0.0;   TEEND  =   0.0 temperature during run
   SMASS  =  -3.00    Nose mass-parameter (am)
   estimated Nose-frequenzy (Omega)   =  0.10E-29 period in steps = 0.13E+47 mass=  -0.332E-27a.u.
   SCALEE = 1.0000    scale energy and forces
   NPACO  =    256;   APACO  = 10.0  distance and # of slots for P.C.
   PSTRESS=    0.0 pullay stress

  Mass of Ions in am
   POMASS =  55.85195.08
  Ionic Valenz
   ZVAL   =  14.00 10.00
  Atomic Wigner-Seitz radii
   RWIGS  =  -1.00 -1.00
  virtual crystal weights 
   VCA    =   1.00  1.00
   NELECT =     156.0000    total number of electrons
   NUPDOWN=      -1.0000    fix difference up-down

 DOS related values:
   EMIN   =  10.00;   EMAX   =-10.00  energy-range for DOS
   EFERMI =   0.00;   METHOD = LEGACY      
   ISMEAR =    -5;   SIGMA  =   0.20  broadening in eV -4-tet -1-fermi 0-gaus

 Electronic relaxation 2 (details)
   IALGO  =     38    algorithm
   LDIAG  =      T    sub-space diagonalisation (order eigenvalues)
   LSUBROT=      F    optimize rotation matrix (better conditioning)
   TURBO    =      0    0=normal 1=particle mesh
   IRESTART =      0    0=no restart 2=restart with 2 vectors
   NREBOOT  =      0    no. of reboots
   NMIN     =      0    reboot dimension
   EREF     =   0.00    reference energy to select bands
   IMIX   =      4    mixing-type and parameters
     AMIX     =   0.40;   BMIX     =  1.00
     AMIX_MAG =   1.60;   BMIX_MAG =  1.00
     AMIN     =   0.10
     WC   =   100.;   INIMIX=   1;  MIXPRE=   1;  MAXMIX= -45

 Intra band minimization:
   WEIMIN = 0.0000     energy-eigenvalue tresh-hold
   EBREAK =  0.20E-08  absolut break condition
   DEPER  =   0.30     relativ break condition  

   TIME   =   0.40     timestep for ELM

  volume/ion in A,a.u.               =      13.83        93.35
  Fermi-wavevector in a.u.,A,eV,Ry     =   1.603542  3.030255 34.985298  2.571347
  Thomas-Fermi vector in A             =   2.700188
 
 Write flags
   LWAVE        =      F    write WAVECAR
   LDOWNSAMPLE  =      F    k-point downsampling of WAVECAR
   LCHARG       =      T    write CHGCAR
   LVTOT        =      F    write LOCPOT, total local potential
   LVHAR        =      F    write LOCPOT, Hartree potential only
   WRT_POTENTIAL= false  ! write potential to hdf5 file
   LELF         =      F    write electronic localiz. function (ELF)
   LORBIT       =     11    0 simple, 1 ext, 2 COOP (PROOUT), +10 PAW based schemes


 Dipole corrections
   LMONO      =      F    monopole corrections only (constant potential shift)
   LDIPOL     =      F    correct potential (dipole corrections)
   IDIPOL     =      0    1-x, 2-y, 3-z, 4-all directions 
   EPSILON    =  1.0000000 bulk dielectric constant
   LVACPOTAV  =      F  vacuum potentials using an averaging scheme for the charge density
   VACPOTFLAT =  0.1000000 required flatness to determine vacuum potential
 Exchange correlation treatment:
   GGA     = PE    functional components
   XC_C    = 1    coefficients multiplying the functional components
   LIBXC   =     F    Libxc                    
   VOSKOWN =     0    Vosko Wilk Nusair interpolation
   LHFCALC =     F    Hartree Fock is set to
   LHFONE  =     F    Hartree Fock one center treatment
   AEXX    =    0.0000 exact exchange contribution

 Parameters of functionals:
   PE:
     No parameter
 
 Van der Waals corrections
   IVDW    =     0    specifies the selected vdW correction

 Linear response parameters
   LEPSILON=     F    determine dielectric tensor
   LRPA    =     F    only Hartree local field effects (RPA)
   LNABLA  =     F    use nabla operator in PAW spheres
   LVEL    =     F    velocity operator in full k-point grid
   CSHIFT  =0.1000    complex shift for real part using Kramers Kronig
   OMEGAMAX=  -1.0    maximum frequency
   DEG_THRESHOLD= 0.2000000E-02 threshold for treating states as degnerate
   RTIME   =   -0.100 relaxation time in fs
  (WPLASMAI=    0.000 imaginary part of plasma frequency in eV, 0.658/RTIME)
   DFIELD  = 0.0000000 0.0000000 0.0000000 field for delta impulse in time
 
  Optional k-point grid parameters
   LKPOINTS_OPT  =     F    use optional k-point grid
   KPOINTS_OPT_MODE=     1    mode for optional k-point grid
 
 Orbital magnetization related:
   ORBITALMAG=     F  switch on orbital magnetization
   LCHIMAG   =     F  perturbation theory with respect to B field
   DQ        =  0.001000  dq finite difference perturbation B field
   LLRAUG    =     F  two centre corrections for induced B field
   LBONE     =     F  B-component reconstruction in AE one-centre
   LVGVCALC  =     T  calculate vGv susceptibility
   LVGVAPPL  =     F  apply vGv susceptibility instead of pGv for G=0

 Random number generation:
   RANDOM_GENERATOR = DEFAULT
   PCG_SEED         = not used


--------------------------------------------------------------------------------------------------------


 Static calculation
 charge density and potential will be updated during run
 spin polarized calculation
 Variant of blocked Davidson
 Davidson routine will perform the subspace rotation
 perform sub-space diagonalisation
    after iterative eigenvector-optimisation
 modified Broyden-mixing scheme, WC =      100.0
 initial mixing is a Kerker type mixing with AMIX =  0.4000 and BMIX =      1.0000
 Hartree-type preconditioning will be used
 using additional bands           50
 reciprocal scheme for non local part
 use partial core corrections
 calculate Harris-corrections to forces 
   (improved forces if not selfconsistent)
 use gradient corrections 
 use of overlap-Matrix (Vanderbilt PP)
 Fermi weights with tetrahedron method with Bloechl corrections


--------------------------------------------------------------------------------------------------------


  energy-cutoff  :      520.00
  volume of cell :      166.00
      direct lattice vectors                 reciprocal lattice vectors
     3.810005715  0.000000000  0.000000000     0.262466798  0.000000000  0.000000000
     0.000000000  3.810005715  0.000000000     0.000000000  0.262466798  0.000000000
     0.000000000  0.000000000 11.435544117     0.000000000  0.000000000  0.087446648

  length of vectors
     3.810005715  3.810005715 11.435544117     0.262466798  0.262466798  0.087446648


 
 k-points in units of 2pi/SCALE and weight: pymatgen with grid density = 8800 / numb
   0.00000000  0.00000000  0.00000000       0.001
   0.02018975  0.00000000  0.00000000       0.006
   0.04037951  0.00000000  0.00000000       0.006
   0.06056926  0.00000000  0.00000000       0.006
   0.08075901  0.00000000  0.00000000       0.006
   0.10094877  0.00000000  0.00000000       0.006
   0.12113852  0.00000000  0.00000000       0.006
   0.02018975  0.02018975  0.00000000       0.006
   0.04037951  0.02018975  0.00000000       0.012
   0.06056926  0.02018975  0.00000000       0.012
   0.08075901  0.02018975  0.00000000       0.012
   0.10094877  0.02018975  0.00000000       0.012
   0.12113852  0.02018975  0.00000000       0.012
   0.04037951  0.04037951  0.00000000       0.006
   0.06056926  0.04037951  0.00000000       0.012
   0.08075901  0.04037951  0.00000000       0.012
   0.10094877  0.04037951  0.00000000       0.012
   0.12113852  0.04037951  0.00000000       0.012
   0.06056926  0.06056926  0.00000000       0.006
   0.08075901  0.06056926  0.00000000       0.012
   0.10094877  0.06056926  0.00000000       0.012
   0.12113852  0.06056926  0.00000000       0.012
   0.08075901  0.08075901  0.00000000       0.006
   0.10094877  0.08075901  0.00000000       0.012
   0.12113852  0.08075901  0.00000000       0.012
   0.10094877  0.10094877  0.00000000       0.006
   0.12113852  0.10094877  0.00000000       0.012
   0.12113852  0.12113852  0.00000000       0.006
   0.00000000  0.00000000  0.02186166       0.003
   0.02018975  0.00000000  0.02186166       0.012
   0.04037951  0.00000000  0.02186166       0.012
   0.06056926  0.00000000  0.02186166       0.012
   0.08075901  0.00000000  0.02186166       0.012
   0.10094877  0.00000000  0.02186166       0.012
   0.12113852  0.00000000  0.02186166       0.012
   0.02018975  0.02018975  0.02186166       0.012
   0.04037951  0.02018975  0.02186166       0.024
   0.06056926  0.02018975  0.02186166       0.024
   0.08075901  0.02018975  0.02186166       0.024
   0.10094877  0.02018975  0.02186166       0.024
   0.12113852  0.02018975  0.02186166       0.024
   0.04037951  0.04037951  0.02186166       0.012
   0.06056926  0.04037951  0.02186166       0.024
   0.08075901  0.04037951  0.02186166       0.024
   0.10094877  0.04037951  0.02186166       0.024
   0.12113852  0.04037951  0.02186166       0.024
   0.06056926  0.06056926  0.02186166       0.012
   0.08075901  0.06056926  0.02186166       0.024
   0.10094877  0.06056926  0.02186166       0.024
   0.12113852  0.06056926  0.02186166       0.024
   0.08075901  0.08075901  0.02186166       0.012
   0.10094877  0.08075901  0.02186166       0.024
   0.12113852  0.08075901  0.02186166       0.024
   0.10094877  0.10094877  0.02186166       0.012
   0.12113852  0.10094877  0.02186166       0.024
   0.12113852  0.12113852  0.02186166       0.012
   0.00000000  0.00000000  0.04372332       0.001
   0.02018975  0.00000000  0.04372332       0.006
   0.04037951  0.00000000  0.04372332       0.006
   0.06056926  0.00000000  0.04372332       0.006
   0.08075901  0.00000000  0.04372332       0.006
   0.10094877  0.00000000  0.04372332       0.006
   0.12113852  0.00000000  0.04372332       0.006
   0.02018975  0.02018975  0.04372332       0.006
   0.04037951  0.02018975  0.04372332       0.012
   0.06056926  0.02018975  0.04372332       0.012
   0.08075901  0.02018975  0.04372332       0.012
   0.10094877  0.02018975  0.04372332       0.012
   0.12113852  0.02018975  0.04372332       0.012
   0.04037951  0.04037951  0.04372332       0.006
   0.06056926  0.04037951  0.04372332       0.012
   0.08075901  0.04037951  0.04372332       0.012
   0.10094877  0.04037951  0.04372332       0.012
   0.12113852  0.04037951  0.04372332       0.012
   0.06056926  0.06056926  0.04372332       0.006
   0.08075901  0.06056926  0.04372332       0.012
   0.10094877  0.06056926  0.04372332       0.012
   0.12113852  0.06056926  0.04372332       0.012
   0.08075901  0.08075901  0.04372332       0.006
   0.10094877  0.08075901  0.04372332       0.012
   0.12113852  0.08075901  0.04372332       0.012
   0.10094877  0.10094877  0.04372332       0.006
   0.12113852  0.10094877  0.04372332       0.012
   0.12113852  0.12113852  0.04372332       0.006
 
 k-points in reciprocal lattice and weights: pymatgen with grid density = 8800 / numb
   0.00000000  0.00000000  0.00000000       0.001
   0.07692308  0.00000000  0.00000000       0.006
   0.15384615  0.00000000  0.00000000       0.006
   0.23076923  0.00000000  0.00000000       0.006
   0.30769231  0.00000000  0.00000000       0.006
   0.38461538  0.00000000  0.00000000       0.006
   0.46153846  0.00000000  0.00000000       0.006
   0.07692308  0.07692308  0.00000000       0.006
   0.15384615  0.07692308  0.00000000       0.012
   0.23076923  0.07692308  0.00000000       0.012
   0.30769231  0.07692308  0.00000000       0.012
   0.38461538  0.07692308  0.00000000       0.012
   0.46153846  0.07692308  0.00000000       0.012
   0.15384615  0.15384615  0.00000000       0.006
   0.23076923  0.15384615  0.00000000       0.012
   0.30769231  0.15384615  0.00000000       0.012
   0.38461538  0.15384615  0.00000000       0.012
   0.46153846  0.15384615  0.00000000       0.012
   0.23076923  0.23076923  0.00000000       0.006
   0.30769231  0.23076923  0.00000000       0.012
   0.38461538  0.23076923  0.00000000       0.012
   0.46153846  0.23076923  0.00000000       0.012
   0.30769231  0.30769231  0.00000000       0.006
   0.38461538  0.30769231  0.00000000       0.012
   0.46153846  0.30769231  0.00000000       0.012
   0.38461538  0.38461538  0.00000000       0.006
   0.46153846  0.38461538  0.00000000       0.012
   0.46153846  0.46153846  0.00000000       0.006
   0.00000000  0.00000000  0.25000000       0.003
   0.07692308  0.00000000  0.25000000       0.012
   0.15384615  0.00000000  0.25000000       0.012
   0.23076923  0.00000000  0.25000000       0.012
   0.30769231  0.00000000  0.25000000       0.012
   0.38461538  0.00000000  0.25000000       0.012
   0.46153846  0.00000000  0.25000000       0.012
   0.07692308  0.07692308  0.25000000       0.012
   0.15384615  0.07692308  0.25000000       0.024
   0.23076923  0.07692308  0.25000000       0.024
   0.30769231  0.07692308  0.25000000       0.024
   0.38461538  0.07692308  0.25000000       0.024
   0.46153846  0.07692308  0.25000000       0.024
   0.15384615  0.15384615  0.25000000       0.012
   0.23076923  0.15384615  0.25000000       0.024
   0.30769231  0.15384615  0.25000000       0.024
   0.38461538  0.15384615  0.25000000       0.024
   0.46153846  0.15384615  0.25000000       0.024
   0.23076923  0.23076923  0.25000000       0.012
   0.30769231  0.23076923  0.25000000       0.024
   0.38461538  0.23076923  0.25000000       0.024
   0.46153846  0.23076923  0.25000000       0.024
   0.30769231  0.30769231  0.25000000       0.012
   0.38461538  0.30769231  0.25000000       0.024
   0.46153846  0.30769231  0.25000000       0.024
   0.38461538  0.38461538  0.25000000       0.012
   0.46153846  0.38461538  0.25000000       0.024
   0.46153846  0.46153846  0.25000000       0.012
   0.00000000  0.00000000  0.50000000       0.001
   0.07692308  0.00000000  0.50000000       0.006
   0.15384615  0.00000000  0.50000000       0.006
   0.23076923  0.00000000  0.50000000       0.006
   0.30769231  0.00000000  0.50000000       0.006
   0.38461538  0.00000000  0.50000000       0.006
   0.46153846  0.00000000  0.50000000       0.006
   0.07692308  0.07692308  0.50000000       0.006
   0.15384615  0.07692308  0.50000000       0.012
   0.23076923  0.07692308  0.50000000       0.012
   0.30769231  0.07692308  0.50000000       0.012
   0.38461538  0.07692308  0.50000000       0.012
   0.46153846  0.07692308  0.50000000       0.012
   0.15384615  0.15384615  0.50000000       0.006
   0.23076923  0.15384615  0.50000000       0.012
   0.30769231  0.15384615  0.50000000       0.012
   0.38461538  0.15384615  0.50000000       0.012
   0.46153846  0.15384615  0.50000000       0.012
   0.23076923  0.23076923  0.50000000       0.006
   0.30769231  0.23076923  0.50000000       0.012
   0.38461538  0.23076923  0.50000000       0.012
   0.46153846  0.23076923  0.50000000       0.012
   0.30769231  0.30769231  0.50000000       0.006
   0.38461538  0.30769231  0.50000000       0.012
   0.46153846  0.30769231  0.50000000       0.012
   0.38461538  0.38461538  0.50000000       0.006
   0.46153846  0.38461538  0.50000000       0.012
   0.46153846  0.46153846  0.50000000       0.006
 
 position of ions in fractional coordinates (direct lattice) 
   0.00000000  0.50000000  0.16677369
   0.00000000  0.50000000  0.50000000
   0.00000000  0.50000000  0.83322631
   0.50000000  0.50000000  0.00000000
   0.50000000  0.50000000  0.33347709
   0.50000000  0.50000000  0.66652291
   0.50000000  0.00000000  0.16677369
   0.50000000  0.00000000  0.50000000
   0.50000000  0.00000000  0.83322631
   0.00000000  0.00000000  0.00000000
   0.00000000  0.00000000  0.33340841
   0.00000000  0.00000000  0.66659159
 
 position of ions in cartesian coordinates  (Angst):
   0.00000000  1.90500286  1.90714786
   0.00000000  1.90500286  5.71777206
   0.00000000  1.90500286  9.52839626
   1.90500286  1.90500286  0.00000000
   1.90500286  1.90500286  3.81349203
   1.90500286  1.90500286  7.62205209
   1.90500286  0.00000000  1.90714786
   1.90500286  0.00000000  5.71777206
   1.90500286  0.00000000  9.52839626
   0.00000000  0.00000000  0.00000000
   0.00000000  0.00000000  3.81270655
   0.00000000  0.00000000  7.62283756
 


--------------------------------------------------------------------------------------------------------


 k-point     1 :   0.0000 0.0000 0.0000  plane waves:    4467
 k-point     2 :   0.0769 0.0000 0.0000  plane waves:    4443
 k-point     3 :   0.1538 0.0000 0.0000  plane waves:    4456
 k-point     4 :   0.2308 0.0000 0.0000  plane waves:    4460
 k-point     5 :   0.3077 0.0000 0.0000  plane waves:    4478
 k-point     6 :   0.3846 0.0000 0.0000  plane waves:    4472
 k-point     7 :   0.4615 0.0000 0.0000  plane waves:    4470
 k-point     8 :   0.0769 0.0769 0.0000  plane waves:    4452
 k-point     9 :   0.1538 0.0769 0.0000  plane waves:    4454
 k-point    10 :   0.2308 0.0769 0.0000  plane waves:    4461
 k-point    11 :   0.3077 0.0769 0.0000  plane waves:    4461
 k-point    12 :   0.3846 0.0769 0.0000  plane waves:    4470
 k-point    13 :   0.4615 0.0769 0.0000  plane waves:    4469
 k-point    14 :   0.1538 0.1538 0.0000  plane waves:    4454
 k-point    15 :   0.2308 0.1538 0.0000  plane waves:    4459
 k-point    16 :   0.3077 0.1538 0.0000  plane waves:    4469
 k-point    17 :   0.3846 0.1538 0.0000  plane waves:    4478
 k-point    18 :   0.4615 0.1538 0.0000  plane waves:    4482
 k-point    19 :   0.2308 0.2308 0.0000  plane waves:    4462
 k-point    20 :   0.3077 0.2308 0.0000  plane waves:    4469
 k-point    21 :   0.3846 0.2308 0.0000  plane waves:    4471
 k-point    22 :   0.4615 0.2308 0.0000  plane waves:    4491
 k-point    23 :   0.3077 0.3077 0.0000  plane waves:    4454
 k-point    24 :   0.3846 0.3077 0.0000  plane waves:    4469
 k-point    25 :   0.4615 0.3077 0.0000  plane waves:    4488
 k-point    26 :   0.3846 0.3846 0.0000  plane waves:    4478
 k-point    27 :   0.4615 0.3846 0.0000  plane waves:    4485
 k-point    28 :   0.4615 0.4615 0.0000  plane waves:    4472
 k-point    29 :   0.0000 0.0000 0.2500  plane waves:    4455
 k-point    30 :   0.0769 0.0000 0.2500  plane waves:    4431
 k-point    31 :   0.1538 0.0000 0.2500  plane waves:    4442
 k-point    32 :   0.2308 0.0000 0.2500  plane waves:    4455
 k-point    33 :   0.3077 0.0000 0.2500  plane waves:    4476
 k-point    34 :   0.3846 0.0000 0.2500  plane waves:    4483
 k-point    35 :   0.4615 0.0000 0.2500  plane waves:    4477
 k-point    36 :   0.0769 0.0769 0.2500  plane waves:    4433
 k-point    37 :   0.1538 0.0769 0.2500  plane waves:    4448
 k-point    38 :   0.2308 0.0769 0.2500  plane waves:    4461
 k-point    39 :   0.3077 0.0769 0.2500  plane waves:    4469
 k-point    40 :   0.3846 0.0769 0.2500  plane waves:    4474
 k-point    41 :   0.4615 0.0769 0.2500  plane waves:    4477
 k-point    42 :   0.1538 0.1538 0.2500  plane waves:    4450
 k-point    43 :   0.2308 0.1538 0.2500  plane waves:    4468
 k-point    44 :   0.3077 0.1538 0.2500  plane waves:    4477
 k-point    45 :   0.3846 0.1538 0.2500  plane waves:    4477
 k-point    46 :   0.4615 0.1538 0.2500  plane waves:    4480
 k-point    47 :   0.2308 0.2308 0.2500  plane waves:    4470
 k-point    48 :   0.3077 0.2308 0.2500  plane waves:    4469
 k-point    49 :   0.3846 0.2308 0.2500  plane waves:    4476
 k-point    50 :   0.4615 0.2308 0.2500  plane waves:    4480
 k-point    51 :   0.3077 0.3077 0.2500  plane waves:    4469
 k-point    52 :   0.3846 0.3077 0.2500  plane waves:    4472
 k-point    53 :   0.4615 0.3077 0.2500  plane waves:    4481
 k-point    54 :   0.3846 0.3846 0.2500  plane waves:    4472
 k-point    55 :   0.4615 0.3846 0.2500  plane waves:    4475
 k-point    56 :   0.4615 0.4615 0.2500  plane waves:    4483
 k-point    57 :   0.0000 0.0000 0.5000  plane waves:    4410
 k-point    58 :   0.0769 0.0000 0.5000  plane waves:    4418
 k-point    59 :   0.1538 0.0000 0.5000  plane waves:    4424
 k-point    60 :   0.2308 0.0000 0.5000  plane waves:    4464
 k-point    61 :   0.3077 0.0000 0.5000  plane waves:    4484
 k-point    62 :   0.3846 0.0000 0.5000  plane waves:    4476
 k-point    63 :   0.4615 0.0000 0.5000  plane waves:    4472
 k-point    64 :   0.0769 0.0769 0.5000  plane waves:    4418
 k-point    65 :   0.1538 0.0769 0.5000  plane waves:    4440
 k-point    66 :   0.2308 0.0769 0.5000  plane waves:    4460
 k-point    67 :   0.3077 0.0769 0.5000  plane waves:    4474
 k-point    68 :   0.3846 0.0769 0.5000  plane waves:    4478
 k-point    69 :   0.4615 0.0769 0.5000  plane waves:    4478
 k-point    70 :   0.1538 0.1538 0.5000  plane waves:    4438
 k-point    71 :   0.2308 0.1538 0.5000  plane waves:    4470
 k-point    72 :   0.3077 0.1538 0.5000  plane waves:    4480
 k-point    73 :   0.3846 0.1538 0.5000  plane waves:    4484
 k-point    74 :   0.4615 0.1538 0.5000  plane waves:    4482
 k-point    75 :   0.2308 0.2308 0.5000  plane waves:    4476
 k-point    76 :   0.3077 0.2308 0.5000  plane waves:    4474
 k-point    77 :   0.3846 0.2308 0.5000  plane waves:    4484
 k-point    78 :   0.4615 0.2308 0.5000  plane waves:    4480
 k-point    79 :   0.3077 0.3077 0.5000  plane waves:    4472
 k-point    80 :   0.3846 0.3077 0.5000  plane waves:    4492
 k-point    81 :   0.4615 0.3077 0.5000  plane waves:    4488
 k-point    82 :   0.3846 0.3846 0.5000  plane waves:    4480
 k-point    83 :   0.4615 0.3846 0.5000  plane waves:    4486
 k-point    84 :   0.4615 0.4615 0.5000  plane waves:    4472

 maximum and minimum number of plane-waves per node :      4492     4410

 maximum number of plane-waves:      4492
 maximum index in each direction: 
   IXMAX=    7   IYMAX=    7   IZMAX=   21
   IXMIN=   -7   IYMIN=   -7   IZMIN=  -21


 serial   3D FFT for wavefunctions
 parallel 3D FFT for charge:
    minimum data exchange during FFTs selected (reduces bandwidth)


 total amount of memory used by VASP MPI-rank0   199566. kBytes
=======================================================================

   base      :      30000. kBytes
   nonl-proj :     110020. kBytes
   fftplans  :        955. kBytes
   grid      :       7297. kBytes
   one-center:        373. kBytes
   wavefun   :      50921. kBytes
 
     INWAV:  cpu time      0.0001: real time      0.0001
 Broyden mixing: mesh for mixing (old mesh)
   NGX = 15   NGY = 15   NGZ = 43
  (NGX  = 56   NGY  = 56   NGZ  =180)
  gives a total of   9675 points

 initial charge density was supplied:
 charge density of overlapping atoms calculated
 number of electron     156.0000000 magnetization      26.4950000
 keeping initial charge density in first step


--------------------------------------------------------------------------------------------------------


 Maximum index for augmentation-charges         1047 (set IRDMAX)


--------------------------------------------------------------------------------------------------------


 First call to EWALD:  gamma=   0.323
 Maximum number of real-space cells 4x 4x 2
 Maximum number of reciprocal cells 2x 2x 5

    FEWALD:  cpu time      0.0011: real time      0.0011


--------------------------------------- Ionic step        1  -------------------------------------------




--------------------------------------- Iteration      1(   1)  ---------------------------------------


    POTLOK:  cpu time      0.0462: real time      0.0493
    SETDIJ:  cpu time      0.0129: real time      0.0136
     EDDAV:  cpu time      6.6041: real time      6.8012
 BZINTS: Fermi energy:   22.320123;  156.000000 electrons
         Band energy: 0.415053E+03;  BLOECHL correction:   -0.047498
       DOS:  cpu time      0.1273: real time      0.1286
    --------------------------------------------
      LOOP:  cpu time      6.7905: real time      6.9927

 eigenvalue-minimisations  : 43040
 total energy-change (2. order) : 0.1771521E+04  (-0.8487104E+04)
 number of electron     156.0000000 magnetization      26.4950000
 augmentation part      156.0000000 magnetization      26.4950000

 Free energy of the ion-electron system (eV)
  ---------------------------------------------------
  alpha Z        PSCENC =      1025.24174436
  Ewald energy   TEWEN  =    -17721.45162231
  -Hartree energ DENC   =     -6182.83436041
  -exchange      EXHF   =         0.00000000
  -V(xc)+E(xc)   XCENC  =       655.27055302
  PAW double counting   =     20093.28019673   -20817.14206742
  entropy T*S    EENTRO =         0.00000000
  eigenvalues    EBANDS =       415.05335692
  atomic energy  EATOM  =     24304.10294433
  Solvation  Ediel_sol  =         0.00000000
  ---------------------------------------------------
  free energy    TOTEN  =      1771.52074522 eV

  energy without entropy =     1771.52074522  energy(sigma->0) =     1771.52074522


--------------------------------------------------------------------------------------------------------




--------------------------------------- Iteration      1(   2)  ---------------------------------------


     EDDAV:  cpu time      6.1833: real time      6.2348
 BZINTS: Fermi energy:   11.293694;  156.000000 electrons
         Band energy:-0.134995E+04;  BLOECHL correction:   -0.027410
       DOS:  cpu time      0.1298: real time      0.1308
    --------------------------------------------
      LOOP:  cpu time      6.3131: real time      6.3656

 eigenvalue-minimisations  : 43008
 total energy-change (2. order) :-0.1765008E+04  (-0.1672916E+04)
 number of electron     156.0000000 magnetization      26.4950000
 augmentation part      156.0000000 magnetization      26.4950000

 Free energy of the ion-electron system (eV)
  ---------------------------------------------------
  alpha Z        PSCENC =      1025.24174436
  Ewald energy   TEWEN  =    -17721.45162231
  -Hartree energ DENC   =     -6182.83436041
  -exchange      EXHF   =         0.00000000
  -V(xc)+E(xc)   XCENC  =       655.27055302
  PAW double counting   =     20093.28019673   -20817.14206742
  entropy T*S    EENTRO =         0.00000000
  eigenvalues    EBANDS =     -1349.95452866
  atomic energy  EATOM  =     24304.10294433
  Solvation  Ediel_sol  =         0.00000000
  ---------------------------------------------------
  free energy    TOTEN  =         6.51285964 eV

  energy without entropy =        6.51285964  energy(sigma->0) =        6.51285964


--------------------------------------------------------------------------------------------------------




--------------------------------------- Iteration      1(   3)  ---------------------------------------


     EDDAV:  cpu time      7.4392: real time      7.4899
 BZINTS: Fermi energy:   10.663239;  156.000000 electrons
         Band energy:-0.145868E+04;  BLOECHL correction:   -0.040896
       DOS:  cpu time      0.1283: real time      0.1293
    --------------------------------------------
      LOOP:  cpu time      7.5675: real time      7.6192

 eigenvalue-minimisations  : 50688
 total energy-change (2. order) :-0.1087237E+03  (-0.1068844E+03)
 number of electron     156.0000000 magnetization      26.4950000
 augmentation part      156.0000000 magnetization      26.4950000

 Free energy of the ion-electron system (eV)
  ---------------------------------------------------
  alpha Z        PSCENC =      1025.24174436
  Ewald energy   TEWEN  =    -17721.45162231
  -Hartree energ DENC   =     -6182.83436041
  -exchange      EXHF   =         0.00000000
  -V(xc)+E(xc)   XCENC  =       655.27055302
  PAW double counting   =     20093.28019673   -20817.14206742
  entropy T*S    EENTRO =         0.00000000
  eigenvalues    EBANDS =     -1458.67823368
  atomic energy  EATOM  =     24304.10294433
  Solvation  Ediel_sol  =         0.00000000
  ---------------------------------------------------
  free energy    TOTEN  =      -102.21084539 eV

  energy without entropy =     -102.21084539  energy(sigma->0) =     -102.21084539


--------------------------------------------------------------------------------------------------------




--------------------------------------- Iteration      1(   4)  ---------------------------------------


     EDDAV:  cpu time      6.5795: real time      6.6287
 BZINTS: Fermi energy:   10.658207;  156.000000 electrons
         Band energy:-0.146033E+04;  BLOECHL correction:   -0.040966
       DOS:  cpu time      0.1287: real time      0.1296
    --------------------------------------------
      LOOP:  cpu time      6.7081: real time      6.7582

 eigenvalue-minimisations  : 45696
 total energy-change (2. order) :-0.1649303E+01  (-0.1648862E+01)
 number of electron     156.0000000 magnetization      26.4950000
 augmentation part      156.0000000 magnetization      26.4950000

 Free energy of the ion-electron system (eV)
  ---------------------------------------------------
  alpha Z        PSCENC =      1025.24174436
  Ewald energy   TEWEN  =    -17721.45162231
  -Hartree energ DENC   =     -6182.83436041
  -exchange      EXHF   =         0.00000000
  -V(xc)+E(xc)   XCENC  =       655.27055302
  PAW double counting   =     20093.28019673   -20817.14206742
  entropy T*S    EENTRO =         0.00000000
  eigenvalues    EBANDS =     -1460.32753651
  atomic energy  EATOM  =     24304.10294433
  Solvation  Ediel_sol  =         0.00000000
  ---------------------------------------------------
  free energy    TOTEN  =      -103.86014822 eV

  energy without entropy =     -103.86014822  energy(sigma->0) =     -103.86014822


--------------------------------------------------------------------------------------------------------




--------------------------------------- Iteration      1(   5)  ---------------------------------------


     EDDAV:  cpu time      7.8230: real time      7.8759
 BZINTS: Fermi energy:   10.658161;  156.000000 electrons
         Band energy:-0.146036E+04;  BLOECHL correction:   -0.040965
       DOS:  cpu time      0.1290: real time      0.1299
    CHARGE:  cpu time      0.1617: real time      0.1633
    MIXING:  cpu time      0.0077: real time      0.0081
    --------------------------------------------
      LOOP:  cpu time      8.1215: real time      8.1772

 eigenvalue-minimisations  : 52800
 total energy-change (2. order) :-0.3391599E-01  (-0.3391448E-01)
 number of electron     155.9999872 magnetization      25.8162531
 augmentation part       79.4891256 magnetization      18.4343562

 Broyden mixing:
  rms(total) = 0.35792E+01    rms(broyden)= 0.35791E+01
  rms(prec ) = 0.40693E+01
  weight for this iteration     100.00

 Free energy of the ion-electron system (eV)
  ---------------------------------------------------
  alpha Z        PSCENC =      1025.24174436
  Ewald energy   TEWEN  =    -17721.45162231
  -Hartree energ DENC   =     -6182.83436041
  -exchange      EXHF   =         0.00000000
  -V(xc)+E(xc)   XCENC  =       655.27055302
  PAW double counting   =     20093.28019673   -20817.14206742
  entropy T*S    EENTRO =         0.00000000
  eigenvalues    EBANDS =     -1460.36145250
  atomic energy  EATOM  =     24304.10294433
  Solvation  Ediel_sol  =         0.00000000
  ---------------------------------------------------
  free energy    TOTEN  =      -103.89406421 eV

  energy without entropy =     -103.89406421  energy(sigma->0) =     -103.89406421


--------------------------------------------------------------------------------------------------------




--------------------------------------- Iteration      1(   6)  ---------------------------------------


    POTLOK:  cpu time      0.0397: real time      0.0463
    SETDIJ:  cpu time      0.0092: real time      0.0092
     EDDAV:  cpu time      6.9954: real time      7.0441
 BZINTS: Fermi energy:    8.119050;  156.000000 electrons
         Band energy:-0.189008E+04;  BLOECHL correction:   -0.068313
       DOS:  cpu time      0.1359: real time      0.1371
    CHARGE:  cpu time      0.1503: real time      0.1512
    MIXING:  cpu time      0.0034: real time      0.0035
    --------------------------------------------
      LOOP:  cpu time      7.3338: real time      7.3913

 eigenvalue-minimisations  : 48480
 total energy-change (2. order) : 0.1888837E+01  (-0.6630927E+01)
 number of electron     155.9999857 magnetization      25.1584352
 augmentation part       88.3803900 magnetization      19.7941263

 Broyden mixing:
  rms(total) = 0.38978E+01    rms(broyden)= 0.38977E+01
  rms(prec ) = 0.47327E+01
  weight for this iteration     100.00

 eigenvalues of (default mixing * dielectric matrix)
  average eigenvalue GAMMA=   0.3687
  0.3687

 Free energy of the ion-electron system (eV)
  ---------------------------------------------------
  alpha Z        PSCENC =      1025.24174436
  Ewald energy   TEWEN  =    -17721.45162231
  -Hartree energ DENC   =     -5758.89719844
  -exchange      EXHF   =         0.00000000
  -V(xc)+E(xc)   XCENC  =       638.45215768
  PAW double counting   =     20257.24164556   -20956.61402962
  entropy T*S    EENTRO =         0.00000000
  eigenvalues    EBANDS =     -1890.08086888
  atomic energy  EATOM  =     24304.10294433
  Solvation  Ediel_sol  =         0.00000000
  ---------------------------------------------------
  free energy    TOTEN  =      -102.00522732 eV

  energy without entropy =     -102.00522732  energy(sigma->0) =     -102.00522732


--------------------------------------------------------------------------------------------------------




--------------------------------------- Iteration      1(   7)  ---------------------------------------


    POTLOK:  cpu time      0.0445: real time      0.0453
    SETDIJ:  cpu time      0.0073: real time      0.0073
     EDDAV:  cpu time      7.1777: real time      7.2280
 BZINTS: Fermi energy:    9.233951;  156.000000 electrons
         Band energy:-0.170513E+04;  BLOECHL correction:   -0.052138
       DOS:  cpu time      0.1364: real time      0.1378
    CHARGE:  cpu time      0.1509: real time      0.1520
    MIXING:  cpu time      0.0033: real time      0.0034
    --------------------------------------------
      LOOP:  cpu time      7.5201: real time      7.5737

 eigenvalue-minimisations  : 49440
 total energy-change (2. order) : 0.6947060E+01  (-0.8211282E+01)
 number of electron     155.9999865 magnetization      25.1541395
 augmentation part       84.1295695 magnetization      18.1948665

 Broyden mixing:
  rms(total) = 0.18207E+01    rms(broyden)= 0.18206E+01
  rms(prec ) = 0.21218E+01
  weight for this iteration     100.00

 eigenvalues of (default mixing * dielectric matrix)
  average eigenvalue GAMMA=   0.6403
  0.9736  0.3071

 Free energy of the ion-electron system (eV)
  ---------------------------------------------------
  alpha Z        PSCENC =      1025.24174436
  Ewald energy   TEWEN  =    -17721.45162231
  -Hartree energ DENC   =     -5910.91869043
  -exchange      EXHF   =         0.00000000
  -V(xc)+E(xc)   XCENC  =       643.17396664
  PAW double counting   =     20814.00222036   -21544.07467078
  entropy T*S    EENTRO =         0.00000000
  eigenvalues    EBANDS =     -1705.13405900
  atomic energy  EATOM  =     24304.10294433
  Solvation  Ediel_sol  =         0.00000000
  ---------------------------------------------------
  free energy    TOTEN  =       -95.05816683 eV

  energy without entropy =      -95.05816683  energy(sigma->0) =      -95.05816683


--------------------------------------------------------------------------------------------------------




--------------------------------------- Iteration      1(   8)  ---------------------------------------


    POTLOK:  cpu time      0.0442: real time      0.0450
    SETDIJ:  cpu time      0.0085: real time      0.0085
     EDDAV:  cpu time      7.7365: real time      7.7902
 BZINTS: Fermi energy:    9.088524;  156.000000 electrons
         Band energy:-0.173187E+04;  BLOECHL correction:   -0.036031
       DOS:  cpu time      0.1351: real time      0.1361
    CHARGE:  cpu time      0.1512: real time      0.1523
    MIXING:  cpu time      0.0021: real time      0.0021
    --------------------------------------------
      LOOP:  cpu time      8.0776: real time      8.1343

 eigenvalue-minimisations  : 52768
 total energy-change (2. order) :-0.6651230E+00  (-0.1240963E+01)
 number of electron     155.9999864 magnetization      25.1576161
 augmentation part       84.7429255 magnetization      18.8123597

 Broyden mixing:
  rms(total) = 0.21202E+01    rms(broyden)= 0.21201E+01
  rms(prec ) = 0.34507E+01
  weight for this iteration     100.00

 eigenvalues of (default mixing * dielectric matrix)
  average eigenvalue GAMMA=   0.5547
  1.0672  0.2984  0.2984

 Free energy of the ion-electron system (eV)
  ---------------------------------------------------
  alpha Z        PSCENC =      1025.24174436
  Ewald energy   TEWEN  =    -17721.45162231
  -Hartree energ DENC   =     -5874.33780251
  -exchange      EXHF   =         0.00000000
  -V(xc)+E(xc)   XCENC  =       643.62886879
  PAW double counting   =     21210.27327904   -21951.31209407
  entropy T*S    EENTRO =         0.00000000
  eigenvalues    EBANDS =     -1731.86860743
  atomic energy  EATOM  =     24304.10294433
  Solvation  Ediel_sol  =         0.00000000
  ---------------------------------------------------
  free energy    TOTEN  =       -95.72328980 eV

  energy without entropy =      -95.72328980  energy(sigma->0) =      -95.72328980


--------------------------------------------------------------------------------------------------------




--------------------------------------- Iteration      1(   9)  ---------------------------------------


    POTLOK:  cpu time      0.0391: real time      0.0460
    SETDIJ:  cpu time      0.0084: real time      0.0084
     EDDAV:  cpu time      7.5676: real time      7.6188
 BZINTS: Fermi energy:    9.020231;  156.000000 electrons
         Band energy:-0.173581E+04;  BLOECHL correction:   -0.056023
       DOS:  cpu time      0.1359: real time      0.1369
    CHARGE:  cpu time      0.1523: real time      0.1532
    MIXING:  cpu time      0.0021: real time      0.0021
    --------------------------------------------
      LOOP:  cpu time      7.9054: real time      7.9653

 eigenvalue-minimisations  : 51808
 total energy-change (2. order) : 0.1863841E+01  (-0.1698230E+01)
 number of electron     155.9999864 magnetization      25.3828936
 augmentation part       84.8622843 magnetization      19.0427847

 Broyden mixing:
  rms(total) = 0.11515E+01    rms(broyden)= 0.11513E+01
  rms(prec ) = 0.17314E+01
  weight for this iteration     100.00

 eigenvalues of (default mixing * dielectric matrix)
  average eigenvalue GAMMA=   0.7179
  1.6414  0.7814  0.3341  0.1148

 Free energy of the ion-electron system (eV)
  ---------------------------------------------------
  alpha Z        PSCENC =      1025.24174436
  Ewald energy   TEWEN  =    -17721.45162231
  -Hartree energ DENC   =     -5866.45352231
  -exchange      EXHF   =         0.00000000
  -V(xc)+E(xc)   XCENC  =       643.50372743
  PAW double counting   =     21283.94593744   -22026.93680010
  entropy T*S    EENTRO =         0.00000000
  eigenvalues    EBANDS =     -1735.81185737
  atomic energy  EATOM  =     24304.10294433
  Solvation  Ediel_sol  =         0.00000000
  ---------------------------------------------------
  free energy    TOTEN  =       -93.85944852 eV

  energy without entropy =      -93.85944852  energy(sigma->0) =      -93.85944852


--------------------------------------------------------------------------------------------------------




--------------------------------------- Iteration      1(  10)  ---------------------------------------


    POTLOK:  cpu time      0.0447: real time      0.0458
    SETDIJ:  cpu time      0.0079: real time      0.0079
     EDDAV:  cpu time      7.3270: real time      7.3789
 BZINTS: Fermi energy:    8.889436;  156.000000 electrons
         Band energy:-0.175093E+04;  BLOECHL correction:   -0.065680
       DOS:  cpu time      0.1357: real time      0.1367
    CHARGE:  cpu time      0.1504: real time      0.1512
    MIXING:  cpu time      0.0020: real time      0.0020
    --------------------------------------------
      LOOP:  cpu time      7.6677: real time      7.7225

 eigenvalue-minimisations  : 50656
 total energy-change (2. order) : 0.5240993E+00  (-0.2301066E+00)
 number of electron     155.9999863 magnetization      25.4769714
 augmentation part       85.1677263 magnetization      19.4363318

 Broyden mixing:
  rms(total) = 0.62928E+00    rms(broyden)= 0.62926E+00
  rms(prec ) = 0.75044E+00
  weight for this iteration     100.00

 eigenvalues of (default mixing * dielectric matrix)
  average eigenvalue GAMMA=   0.6742
  1.7541  0.7953  0.3515  0.3515  0.1183

 Free energy of the ion-electron system (eV)
  ---------------------------------------------------
  alpha Z        PSCENC =      1025.24174436
  Ewald energy   TEWEN  =    -17721.45162231
  -Hartree energ DENC   =     -5841.18983388
  -exchange      EXHF   =         0.00000000
  -V(xc)+E(xc)   XCENC  =       643.27570636
  PAW double counting   =     21621.89663150   -22374.28362511
  entropy T*S    EENTRO =         0.00000000
  eigenvalues    EBANDS =     -1750.92729446
  atomic energy  EATOM  =     24304.10294433
  Solvation  Ediel_sol  =         0.00000000
  ---------------------------------------------------
  free energy    TOTEN  =       -93.33534921 eV

  energy without entropy =      -93.33534921  energy(sigma->0) =      -93.33534921


--------------------------------------------------------------------------------------------------------




--------------------------------------- Iteration      1(  11)  ---------------------------------------


    POTLOK:  cpu time      0.0381: real time      0.0455
    SETDIJ:  cpu time      0.0084: real time      0.0084
     EDDAV:  cpu time      7.3332: real time      7.3829
 BZINTS: Fermi energy:    8.889042;  156.000000 electrons
         Band energy:-0.175048E+04;  BLOECHL correction:   -0.063767
       DOS:  cpu time      0.1353: real time      0.1362
    CHARGE:  cpu time      0.1520: real time      0.1529
    MIXING:  cpu time      0.0021: real time      0.0021
    --------------------------------------------
      LOOP:  cpu time      7.6690: real time      7.7280

 eigenvalue-minimisations  : 50944
 total energy-change (2. order) :-0.1509589E+00  (-0.1756005E+00)
 number of electron     155.9999863 magnetization      25.5869688
 augmentation part       85.1510241 magnetization      19.5467689

 Broyden mixing:
  rms(total) = 0.77695E+00    rms(broyden)= 0.77690E+00
  rms(prec ) = 0.97613E+00
  weight for this iteration     100.00

 eigenvalues of (default mixing * dielectric matrix)
  average eigenvalue GAMMA=   0.6671
  1.8592  0.7936  0.7046  0.3451  0.1185  0.1815

 Free energy of the ion-electron system (eV)
  ---------------------------------------------------
  alpha Z        PSCENC =      1025.24174436
  Ewald energy   TEWEN  =    -17721.45162231
  -Hartree energ DENC   =     -5839.22602689
  -exchange      EXHF   =         0.00000000
  -V(xc)+E(xc)   XCENC  =       643.29510180
  PAW double counting   =     21699.75501775   -22454.72383183
  entropy T*S    EENTRO =         0.00000000
  eigenvalues    EBANDS =     -1750.47963531
  atomic energy  EATOM  =     24304.10294433
  Solvation  Ediel_sol  =         0.00000000
  ---------------------------------------------------
  free energy    TOTEN  =       -93.48630810 eV

  energy without entropy =      -93.48630810  energy(sigma->0) =      -93.48630810


--------------------------------------------------------------------------------------------------------




--------------------------------------- Iteration      1(  12)  ---------------------------------------


    POTLOK:  cpu time      0.0395: real time      0.0454
    SETDIJ:  cpu time      0.0086: real time      0.0086
     EDDAV:  cpu time      7.2924: real time      7.3415
 BZINTS: Fermi energy:    8.913739;  156.000000 electrons
         Band energy:-0.174840E+04;  BLOECHL correction:   -0.068652
       DOS:  cpu time      0.1354: real time      0.1363
    CHARGE:  cpu time      0.1530: real time      0.1541
    MIXING:  cpu time      0.0021: real time      0.0021
    --------------------------------------------
      LOOP:  cpu time      7.6309: real time      7.6881

 eigenvalue-minimisations  : 50528
 total energy-change (2. order) : 0.2333533E+00  (-0.9527015E-01)
 number of electron     155.9999863 magnetization      25.6894328
 augmentation part       85.0788501 magnetization      19.6273228

 Broyden mixing:
  rms(total) = 0.30994E+00    rms(broyden)= 0.30990E+00
  rms(prec ) = 0.38424E+00
  weight for this iteration     100.00

 eigenvalues of (default mixing * dielectric matrix)
  average eigenvalue GAMMA=   0.6812
  2.0034  0.7328  0.7328  0.6864  0.3431  0.1177  0.1523

 Free energy of the ion-electron system (eV)
  ---------------------------------------------------
  alpha Z        PSCENC =      1025.24174436
  Ewald energy   TEWEN  =    -17721.45162231
  -Hartree energ DENC   =     -5838.66619875
  -exchange      EXHF   =         0.00000000
  -V(xc)+E(xc)   XCENC  =       643.32096477
  PAW double counting   =     21772.38693385   -22529.79073670
  entropy T*S    EENTRO =         0.00000000
  eigenvalues    EBANDS =     -1748.39698436
  atomic energy  EATOM  =     24304.10294433
  Solvation  Ediel_sol  =         0.00000000
  ---------------------------------------------------
  free energy    TOTEN  =       -93.25295482 eV

  energy without entropy =      -93.25295482  energy(sigma->0) =      -93.25295482


--------------------------------------------------------------------------------------------------------




--------------------------------------- Iteration      1(  13)  ---------------------------------------


    POTLOK:  cpu time      0.0444: real time      0.0452
    SETDIJ:  cpu time      0.0086: real time      0.0087
     EDDAV:  cpu time      7.1824: real time      7.2311
 BZINTS: Fermi energy:    8.914174;  156.000000 electrons
         Band energy:-0.174910E+04;  BLOECHL correction:   -0.069663
       DOS:  cpu time      0.1365: real time      0.1376
    CHARGE:  cpu time      0.1493: real time      0.1502
    MIXING:  cpu time      0.0022: real time      0.0022
    --------------------------------------------
      LOOP:  cpu time      7.5234: real time      7.5749

 eigenvalue-minimisations  : 49760
 total energy-change (2. order) :-0.3020957E-01  (-0.2468141E-01)
 number of electron     155.9999863 magnetization      25.8211625
 augmentation part       85.0838520 magnetization      19.7455971

 Broyden mixing:
  rms(total) = 0.39623E+00    rms(broyden)= 0.39622E+00
  rms(prec ) = 0.48604E+00
  weight for this iteration     100.00

 eigenvalues of (default mixing * dielectric matrix)
  average eigenvalue GAMMA=   0.7053
  2.2297  0.9585  0.9585  0.6952  0.3431  0.1179  0.1873  0.1520

 Free energy of the ion-electron system (eV)
  ---------------------------------------------------
  alpha Z        PSCENC =      1025.24174436
  Ewald energy   TEWEN  =    -17721.45162231
  -Hartree energ DENC   =     -5836.93676344
  -exchange      EXHF   =         0.00000000
  -V(xc)+E(xc)   XCENC  =       643.28448128
  PAW double counting   =     21812.60478190   -22571.03289902
  entropy T*S    EENTRO =         0.00000000
  eigenvalues    EBANDS =     -1749.09583149
  atomic energy  EATOM  =     24304.10294433
  Solvation  Ediel_sol  =         0.00000000
  ---------------------------------------------------
  free energy    TOTEN  =       -93.28316439 eV

  energy without entropy =      -93.28316439  energy(sigma->0) =      -93.28316439


--------------------------------------------------------------------------------------------------------




--------------------------------------- Iteration      1(  14)  ---------------------------------------


    POTLOK:  cpu time      0.0393: real time      0.0456
    SETDIJ:  cpu time      0.0085: real time      0.0086
     EDDAV:  cpu time      7.1813: real time      7.2291
[...]
    113      22.9874      0.00000
    114      23.5050      0.00000
    115      23.5068      0.00000
    116      23.7944      0.00000
    117      23.7984      0.00000
    118      24.6097      0.00000
    119      24.6109      0.00000
    120      26.1051      0.00000
    121      26.1082      0.00000
    122      26.1645      0.00000
    123      26.4815      0.00000
    124      27.2169      0.00000
    125      27.2175      0.00000
    126      27.6559      0.00000
    127      27.6560      0.00000
    128      28.1861      0.00000


--------------------------------------------------------------------------------------------------------


 soft charge-density along one line, spin component           1
         0         1         2         3         4         5         6         7         8         9
 total charge-density along one line
 
 soft charge-density along one line, spin component           2
         0         1         2         3         4         5         6         7         8         9
 total charge-density along one line
 
 pseudopotential strength for first ion, spin component:           1
-45.815   0.000  -0.000   7.960  -0.000   0.000  -0.000  -0.000
  0.000 -45.812  -0.000  -0.000   7.959   0.000  -0.000   0.000
 -0.000  -0.000 -45.704   0.000   0.000   7.914   0.000  -0.000
  7.960  -0.000   0.000   5.554  -0.000   0.000   0.000   0.000
 -0.000   7.959   0.000  -0.000   5.554   0.000   0.000  -0.000
  0.000   0.000   7.914   0.000   0.000   5.563  -0.000   0.000
 -0.000  -0.000   0.000   0.000   0.000  -0.000  -2.734  -0.000
 -0.000   0.000  -0.000   0.000  -0.000   0.000  -0.000  -2.813
 -0.000  -0.000   0.000   0.000   0.000  -0.000   0.000   0.000
 -0.000   0.000  -0.000   0.000   0.000   0.000   0.000  -0.000
 -0.000   0.000  -0.000   0.000  -0.000   0.000  -0.000  -0.000
 -0.000  -0.000   0.000   0.000   0.000  -0.000  -3.238  -0.000
 -0.000   0.000  -0.000   0.000  -0.000   0.000  -0.000  -3.315
 -0.000  -0.000   0.000   0.000   0.000  -0.000   0.000   0.000
 -0.000  -0.000  -0.000   0.000  -0.000   0.000   0.000  -0.000
 -0.000   0.000  -0.000   0.000  -0.000   0.000  -0.000  -0.000
 -0.000   0.000  -0.000  -0.000  -0.000   0.000   0.000  -0.000
 -0.000   0.000   0.000  -0.000  -0.000  -0.000   0.000  -0.000
 pseudopotential strength for first ion, spin component:           2
-43.380   0.000  -0.000   6.937  -0.000   0.000  -0.000  -0.000
  0.000 -43.378  -0.000  -0.000   6.936   0.000   0.000   0.000
 -0.000  -0.000 -43.342   0.000   0.000   6.920   0.000   0.000
  6.937  -0.000   0.000   5.844  -0.000   0.000   0.000   0.000
 -0.000   6.936   0.000  -0.000   5.845   0.000  -0.000  -0.000
  0.000   0.000   6.920   0.000   0.000   5.848  -0.000  -0.000
 -0.000   0.000   0.000   0.000  -0.000  -0.000  -0.805  -0.000
 -0.000   0.000   0.000   0.000  -0.000  -0.000  -0.000  -0.822
 -0.000  -0.000   0.000   0.000   0.000  -0.000   0.000   0.000
  0.000  -0.000  -0.000  -0.000   0.000   0.000   0.000  -0.000
 -0.000  -0.000  -0.000   0.000   0.000   0.000  -0.000  -0.000
 -0.000   0.000   0.000   0.000  -0.000  -0.000  -1.340  -0.000
 -0.000   0.000   0.000   0.000  -0.000  -0.000  -0.000  -1.356
 -0.000  -0.000   0.000   0.000   0.000  -0.000   0.000   0.000
  0.000  -0.000  -0.000  -0.000   0.000   0.000   0.000  -0.000
 -0.000  -0.000  -0.000   0.000   0.000   0.000  -0.000  -0.000
 -0.000   0.000   0.000  -0.000  -0.000   0.000   0.000  -0.000
 -0.000   0.000   0.000  -0.000  -0.000   0.000   0.000  -0.000
 total augmentation occupancy for first ion, spin component:           1
  1.992   0.000   0.000  -0.028  -0.000   0.000   0.000  -0.000   0.000   0.000   0.000   0.000   0.000  -0.000  -0.000   0.000
  0.000   1.992   0.000   0.000  -0.028   0.000  -0.000   0.000   0.000   0.000   0.000   0.000  -0.000  -0.000   0.000  -0.000
  0.000   0.000   1.992   0.000  -0.000  -0.027   0.000   0.000   0.000   0.000   0.000   0.000   0.000   0.000   0.000  -0.000
 -0.028   0.000   0.000   0.164  -0.000   0.000  -0.000  -0.000   0.000  -0.000  -0.000  -0.000   0.001   0.000  -0.000  -0.000
 -0.000  -0.028  -0.000  -0.000   0.163   0.000  -0.000  -0.000  -0.000   0.000   0.000   0.000  -0.000   0.000  -0.000  -0.000
  0.000   0.000  -0.027   0.000   0.000   0.145   0.000   0.000   0.000  -0.000  -0.000   0.000  -0.000   0.000   0.000   0.000
  0.000  -0.000   0.000  -0.000  -0.000   0.000   2.964  -0.000   0.000   0.000   0.000  -1.558   0.000   0.000   0.000   0.000
 -0.000   0.000   0.000  -0.000  -0.000   0.000  -0.000   3.231   0.000   0.000  -0.000  -0.000  -2.031   0.000   0.000   0.000
  0.000   0.000   0.000   0.000  -0.000   0.000   0.000   0.000   3.349   0.000   0.171   0.000  -0.000  -1.854  -0.000  -0.097
  0.000   0.000   0.000  -0.000   0.000  -0.000   0.000   0.000   0.000   2.957  -0.000  -0.000   0.000  -0.000  -1.553  -0.000
  0.000   0.000   0.000  -0.000   0.000  -0.000   0.000  -0.000   0.171  -0.000   3.143   0.000   0.000  -0.097   0.000  -1.737
  0.000   0.000   0.000  -0.000   0.000   0.000  -1.558  -0.000   0.000  -0.000   0.000   1.558  -0.000   0.000   0.000   0.000
  0.000  -0.000   0.000   0.001  -0.000  -0.000   0.000  -2.031  -0.000   0.000   0.000  -0.000   2.144   0.000   0.000   0.000
 -0.000  -0.000   0.000   0.000   0.000   0.000   0.000   0.000  -1.854  -0.000  -0.097   0.000   0.000   1.620   0.000   0.021
 -0.000   0.000   0.000  -0.000  -0.000   0.000   0.000   0.000  -0.000  -1.553   0.000   0.000   0.000   0.000   1.554   0.000
  0.000  -0.000  -0.000  -0.000  -0.000   0.000   0.000   0.000  -0.097  -0.000  -1.737   0.000   0.000   0.021   0.000   1.591
  0.000  -0.000   0.000  -0.000   0.000  -0.000   0.000  -0.000  -0.097   0.000   0.166   0.000   0.000   0.067   0.000  -0.115
  0.000   0.000   0.000   0.000  -0.000  -0.000   0.000   0.000   0.006  -0.000  -0.010  -0.000   0.000  -0.004   0.000   0.006
 total augmentation occupancy for first ion, spin component:           2
 -0.002   0.000   0.000  -0.010  -0.000   0.000   0.000   0.000   0.000   0.000  -0.000  -0.000  -0.000   0.000   0.000  -0.000
  0.000  -0.002   0.000   0.000  -0.010   0.000  -0.000   0.000  -0.000   0.000  -0.000  -0.000   0.000   0.000   0.000   0.000
  0.000   0.000  -0.002   0.000   0.000  -0.010  -0.000   0.000   0.000  -0.000  -0.000   0.000   0.000   0.000   0.000  -0.000
 -0.010   0.000   0.000  -0.005   0.000   0.000   0.000  -0.000   0.000  -0.000   0.000  -0.000  -0.000   0.000  -0.000  -0.000
 -0.000  -0.010   0.000   0.000  -0.005   0.000   0.000   0.000   0.000  -0.000   0.000  -0.000   0.000  -0.000  -0.000  -0.000
  0.000   0.000  -0.010   0.000   0.000  -0.012   0.000   0.000   0.000   0.000  -0.000   0.000  -0.000  -0.000  -0.000   0.000
  0.000  -0.000  -0.000   0.000   0.000   0.000   2.487  -0.000   0.000   0.000   0.000  -1.092   0.000   0.000   0.000   0.000
  0.000   0.000   0.000  -0.000   0.000   0.000  -0.000   2.526   0.000  -0.000  -0.000  -0.000  -1.035   0.000   0.000   0.000
  0.000  -0.000   0.000   0.000   0.000   0.000   0.000   0.000   2.818   0.000   0.101   0.000   0.000  -1.202   0.000  -0.094
  0.000   0.000  -0.000  -0.000  -0.000   0.000   0.000  -0.000   0.000   2.479   0.000   0.000  -0.000   0.000  -1.086  -0.000
 -0.000  -0.000  -0.000   0.000   0.000  -0.000   0.000  -0.000   0.101   0.000   2.696   0.000   0.000  -0.094  -0.000  -1.088
 -0.000  -0.000   0.000  -0.000  -0.000   0.000  -1.092  -0.000   0.000   0.000   0.000   0.283   0.000   0.000   0.000  -0.000
 -0.000   0.000   0.000  -0.000   0.000  -0.000   0.000  -1.035   0.000  -0.000   0.000   0.000   0.181   0.000   0.000   0.000
  0.000   0.000   0.000   0.000  -0.000  -0.000   0.000   0.000  -1.202   0.000  -0.094   0.000   0.000   0.383   0.000   0.107
  0.000   0.000   0.000  -0.000  -0.000  -0.000   0.000   0.000   0.000  -1.086  -0.000   0.000   0.000   0.000   0.278  -0.000
 -0.000   0.000  -0.000  -0.000  -0.000   0.000   0.000   0.000  -0.094  -0.000  -1.088  -0.000   0.000   0.107  -0.000   0.256
  0.000   0.000   0.000   0.000   0.000   0.000   0.000   0.000  -0.036   0.000   0.060   0.000  -0.000   0.035   0.000  -0.059
 -0.000  -0.000   0.000   0.000   0.000   0.000   0.000   0.000   0.002   0.000  -0.005   0.000  -0.000  -0.000  -0.000   0.001


------------------------ aborting loop because EDIFF is reached ----------------------------------------





 total charge

# of ion       s       p       d       tot
------------------------------------------
    1        0.330   6.291   5.988  12.608
    2        0.330   6.291   5.988  12.610
    3        0.330   6.291   5.988  12.608
    4        0.330   6.291   5.987  12.608
    5        0.330   6.291   5.988  12.609
    6        0.330   6.291   5.988  12.609
    7        0.330   6.291   5.988  12.608
    8        0.330   6.291   5.988  12.610
    9        0.330   6.291   5.988  12.608
   10        0.730   0.628   8.013   9.371
   11        0.730   0.629   8.014   9.373
   12        0.730   0.629   8.014   9.373
--------------------------------------------------
tot          5.160  58.505  77.930 141.595



 magnetization (x)

# of ion       s       p       d       tot
------------------------------------------
    1       -0.001  -0.017   2.839   2.821
    2       -0.001  -0.017   2.836   2.818
    3       -0.001  -0.017   2.839   2.821
    4       -0.001  -0.017   2.838   2.820
    5       -0.001  -0.017   2.837   2.819
    6       -0.001  -0.017   2.837   2.819
    7       -0.001  -0.017   2.839   2.821
    8       -0.001  -0.017   2.836   2.818
    9       -0.001  -0.017   2.839   2.821
   10       -0.042  -0.099   0.435   0.293
   11       -0.042  -0.099   0.435   0.294
   12       -0.042  -0.099   0.435   0.294
--------------------------------------------------
tot         -0.138  -0.454  26.847  26.256
 
    CHARGE:  cpu time      0.1540: real time      0.1550
    FORLOC:  cpu time      0.0020: real time      0.0020
    FORNL :  cpu time      0.7724: real time      0.7773
    STRESS:  cpu time      4.7355: real time      4.7724
    FORCOR:  cpu time      0.0221: real time      0.0222
    FORHAR:  cpu time      0.0027: real time      0.0028
    MIXING:  cpu time      0.0153: real time      0.0155
    OFIELD:  cpu time      0.0015: real time      0.0015

  FORCE on cell =-STRESS in cart. coord.  units (eV):
  Direction    XX          YY          ZZ          XY          YZ          ZX
  --------------------------------------------------------------------------------------
  Alpha Z  1025.24174  1025.24174  1025.24174
  Ewald   -5906.97395 -5906.97395 -5907.52208    -0.00000     0.00000    -0.00000
  Hartree  1945.18707  1945.18707  1944.97399    -0.00000    -0.00000    -0.00000
  E(xc)    -942.70769  -942.70769  -942.70741    -0.00000    -0.00000    -0.00000
  Local     971.23097   971.23097   971.93849     0.00000     0.00000     0.00000
  n-local  -225.73603  -240.52847  -233.28773    13.81557    -0.16791     0.12934
  augment  1440.53722  1440.53722  1440.62066     0.00000    -0.00000     0.00000
  Kinetic  1693.31675  1687.90443  1690.46927     1.52897     0.33928     1.25870
  Fock        0.00000     0.00000     0.00000     0.00000     0.00000     0.00000
  -------------------------------------------------------------------------------------
  Total     -10.00630   -10.00630   -10.27306     0.00000     0.00000     0.00000
  in kB     -96.57748   -96.57748   -99.15221     0.00000     0.00000     0.00000
  external pressure =      -97.44 kB  Pullay stress =        0.00 kB


 VOLUME and BASIS-vectors are now :
 -----------------------------------------------------------------------------
  energy-cutoff  :      520.00
  volume of cell :      166.00
      direct lattice vectors                 reciprocal lattice vectors
     3.810005715  0.000000000  0.000000000     0.262466798  0.000000000  0.000000000
     0.000000000  3.810005715  0.000000000     0.000000000  0.262466798  0.000000000
     0.000000000  0.000000000 11.435544117     0.000000000  0.000000000  0.087446648

  length of vectors
     3.810005715  3.810005715 11.435544117     0.262466798  0.262466798  0.087446648


 FORCES acting on ions
    electron-ion (+dipol)            ewald-force                    non-local-force                 convergence-correction
 -----------------------------------------------------------------------------------------------
   -.622E-13 0.133E-11 0.272E+01   0.854E-14 -.162E-15 -.273E+01   -.113E-20 0.238E-20 -.789E-02   0.345E-14 0.610E-14 0.624E-02
   -.624E-13 0.114E-11 0.145E-12   -.457E-16 -.141E-13 0.227E-12   0.449E-24 0.477E-25 -.352E-24   -.125E-14 0.513E-14 0.232E-12
   -.621E-13 0.265E-11 -.272E+01   -.507E-14 -.859E-14 0.273E+01   0.678E-21 -.325E-20 0.789E-02   -.297E-14 0.961E-14 -.624E-02
   0.112E-11 0.804E-11 0.543E-11   -.142E-13 0.894E-15 0.114E-12   -.274E-24 -.704E-25 0.187E-24   -.251E-12 0.127E-13 0.363E-12
   0.113E-11 0.709E-11 0.305E+01   -.182E-13 -.305E-13 -.306E+01   0.356E-20 0.122E-19 -.122E-01   -.250E-12 0.142E-13 0.214E-01
   0.113E-11 0.661E-11 -.305E+01   -.205E-13 -.280E-13 0.306E+01   -.366E-20 0.128E-19 0.122E-01   -.243E-12 0.158E-13 -.214E-01
   0.113E-11 -.316E-13 0.272E+01   0.180E-13 0.131E-13 -.273E+01   -.300E-20 0.335E-20 -.789E-02   -.229E-12 0.169E-13 0.624E-02
   0.113E-11 -.343E-13 0.314E-11   -.102E-13 0.139E-13 0.000E+00   -.105E-24 -.403E-24 0.524E-24   -.235E-12 0.860E-14 0.245E-12
   0.114E-11 -.407E-13 -.272E+01   -.205E-13 -.952E-14 0.273E+01   0.215E-20 -.310E-20 0.789E-02   -.237E-12 0.735E-14 -.624E-02
   -.400E-13 -.284E-13 0.185E-12   -.201E-15 0.194E-13 0.000E+00   0.178E-24 0.298E-24 -.477E-24   0.422E-13 -.857E-14 0.119E-12
   -.404E-13 -.258E-13 0.183E+01   -.166E-13 -.474E-15 -.185E+01   0.692E-21 0.116E-20 0.831E-02   0.440E-13 -.881E-14 0.127E-01
   -.404E-13 -.307E-13 -.183E+01   0.410E-13 0.174E-13 0.185E+01   -.184E-20 0.712E-21 -.831E-02   0.435E-13 -.961E-14 -.127E-01
 -----------------------------------------------------------------------------------------------
   0.646E-11 0.267E-10 0.526E-11   -.380E-13 -.266E-13 0.621E-12   -.256E-20 0.263E-19 0.000E+00   -.131E-11 0.694E-13 0.582E-12
 
 
 POSITION                                       TOTAL-FORCE (eV/Angst)
 -----------------------------------------------------------------------------------
      0.00000      1.90500      1.90715         0.000000     -0.000000     -0.006563
      0.00000      1.90500      5.71777         0.000000     -0.000000     -0.000000
      0.00000      1.90500      9.52840         0.000000     -0.000000      0.006563
      1.90500      1.90500      0.00000        -0.000000      0.000000     -0.000000
      1.90500      1.90500      3.81349        -0.000000      0.000000      0.004834
      1.90500      1.90500      7.62205         0.000000      0.000000     -0.004834
      1.90500      0.00000      1.90715         0.000000     -0.000000     -0.006563
      1.90500      0.00000      5.71777         0.000000     -0.000000     -0.000000
      1.90500      0.00000      9.52840         0.000000     -0.000000      0.006563
      0.00000      0.00000      0.00000         0.000000     -0.000000     -0.000000
      0.00000      0.00000      3.81271         0.000000     -0.000000      0.005847
      0.00000      0.00000      7.62284         0.000000     -0.000000     -0.005847
 -----------------------------------------------------------------------------------
    total drift:                                0.000000      0.000000      0.000000


--------------------------------------------------------------------------------------------------------



  FREE ENERGIE OF THE ION-ELECTRON SYSTEM (eV)
  ---------------------------------------------------
  free  energy   TOTEN  =       -93.23348237 eV

  energy  without entropy=      -93.23348237  energy(sigma->0) =      -93.23348237
 


--------------------------------------------------------------------------------------------------------


    POTLOK:  cpu time      0.0382: real time      0.0388


--------------------------------------------------------------------------------------------------------


     LOOP+:  cpu time    180.2274: real time    181.8334
 -----------------------------------------------------------------------------
|                                                                             |
|           W    W    AA    RRRRR   N    N  II  N    N   GGGG   !!!           |
|           W    W   A  A   R    R  NN   N  II  NN   N  G    G  !!!           |
|           W    W  A    A  R    R  N N  N  II  N N  N  G       !!!           |
|           W WW W  AAAAAA  RRRRR   N  N N  II  N  N N  G  GGG   !            |
|           WW  WW  A    A  R   R   N   NN  II  N   NN  G    G                |
|           W    W  A    A  R    R  N    N  II  N    N   GGGG   !!!           |
|                                                                             |
|     Tetrahedron method does not include variations of the Fermi             |
|     occupations, so forces and stress will be inaccurate. We suggest        |
|     using a different smearing scheme ISMEAR = 1 or 2 for metals in         |
|     relaxations.                                                            |
|                                                                             |
 -----------------------------------------------------------------------------

    4ORBIT:  cpu time      0.0000: real time      0.0000



 total charge

# of ion       s       p       d       tot
------------------------------------------
    1        0.330   6.291   5.988  12.608
    2        0.330   6.291   5.988  12.610
    3        0.330   6.291   5.988  12.608
    4        0.330   6.291   5.987  12.608
    5        0.330   6.291   5.988  12.609
    6        0.330   6.291   5.988  12.609
    7        0.330   6.291   5.988  12.608
    8        0.330   6.291   5.988  12.610
    9        0.330   6.291   5.988  12.608
   10        0.730   0.628   8.013   9.371
   11        0.730   0.629   8.014   9.373
   12        0.730   0.629   8.014   9.373
--------------------------------------------------
tot          5.160  58.505  77.930 141.595



 magnetization (x)

# of ion       s       p       d       tot
------------------------------------------
    1       -0.001  -0.017   2.839   2.821
    2       -0.001  -0.017   2.836   2.818
    3       -0.001  -0.017   2.839   2.821
    4       -0.001  -0.017   2.838   2.820
    5       -0.001  -0.017   2.837   2.819
    6       -0.001  -0.017   2.837   2.819
    7       -0.001  -0.017   2.839   2.821
    8       -0.001  -0.017   2.836   2.818
    9       -0.001  -0.017   2.839   2.821
   10       -0.042  -0.099   0.435   0.293
   11       -0.042  -0.099   0.435   0.294
   12       -0.042  -0.099   0.435   0.294
--------------------------------------------------
tot         -0.138  -0.454  26.847  26.256
 
 BZINTS: Fermi energy:    8.916059;  156.000000 electrons
         Band energy:-0.174934E+04;  BLOECHL correction:   -0.072053

 total amount of memory used by VASP MPI-rank0   199566. kBytes
=======================================================================

   base      :      30000. kBytes
   nonl-proj :     110020. kBytes
   fftplans  :        955. kBytes
   grid      :       7297. kBytes
   one-center:        373. kBytes
   wavefun   :      50921. kBytes
 
  
  
 General timing and accounting informations for this job:
 ========================================================
  
                  Total CPU time used (sec):      200.462
                            User time (sec):      192.583
                          System time (sec):        7.879
                         Elapsed time (sec):      208.142
  
                   Maximum memory used (kb):      884696.
                   Average memory used (kb):          N/A
  
                          Minor page faults:       188990
                          Major page faults:          113
                 Voluntary context switches:         7356
