 vasp.6.4.3 19Mar24 (build Mar 26 2024 14:05:37) complex                        
  
 executed on             LinuxIFC date 2024.12.16  07:08:44
 running  128 mpi-ranks, on    1 nodes
 distrk:  each k-point on   32 cores,    4 groups
 distr:  one band on NCORE=   1 cores,   32 groups


--------------------------------------------------------------------------------------------------------


 INCAR:
   ALGO = All
   EDIFF = 1e-06
   EDIFFG = -0.01
   ENCUT = 520
   GGA = Pe
   IBRION = 2
   ISIF = 4
   ISMEAR = 1
   ISPIN = 2
   KPAR = 4
   LCHARG = True
   LORBIT = 11
   LREAL = False
   LWAVE = False
   MAGMOM = 1*2.843 1*2.841 1*2.843 1*2.845 2*2.842 1*2.843 1*2.841 1*2.843 3*0.304
   NELM = 200
   NSW = 100
   PREC = Accurate
   SIGMA = 0.2

 POTCAR:    PAW_PBE Fe_pv 02Aug2007               
 POTCAR:    PAW_PBE Pt 04Feb2005                  
 -----------------------------------------------------------------------------
|                                                                             |
|           W    W    AA    RRRRR   N    N  II  N    N   GGGG   !!!           |
|           W    W   A  A   R    R  NN   N  II  NN   N  G    G  !!!           |
|           W    W  A    A  R    R  N N  N  II  N N  N  G       !!!           |
|           W WW W  AAAAAA  RRRRR   N  N N  II  N  N N  G  GGG   !            |
|           WW  WW  A    A  R   R   N   NN  II  N   NN  G    G                |
|           W    W  A    A  R    R  N    N  II  N    N   GGGG   !!!           |
|                                                                             |
|     For optimal performance we recommend to set                             |
|       NCORE = 2 up to number-of-cores-per-socket                            |
|     NCORE specifies how many cores store one orbital (NPAR=cpu/NCORE).      |
|     This setting can greatly improve the performance of VASP for DFT.       |
|     The default, NCORE=1 might be grossly inefficient on modern             |
|     multi-core architectures or massively parallel machines. Do your        |
|     own testing! More info at https://www.vasp.at/wiki/index.php/NCORE      |
|     Unfortunately you need to use the default for GW and RPA                |
|     calculations (for HF NCORE is supported but not extensively tested      |
|     yet).                                                                   |
|                                                                             |
 -----------------------------------------------------------------------------

 POTCAR:    PAW_PBE Fe_pv 02Aug2007               
   SHA256 =  5d22e414b1f82158bf2c7ecb8b97b28fd0923e48cadc1c3bf74d524558f5dd32 Fe_pv/POTCAR          
   COPYR  = (c) Copyright 02Aug2007 Georg Kresse                                                    
   COPYR  = This file is part of the software VASP. Any use, copying, and all other rights are regul
   COPYR  = If you do not have a valid VASP license, you may not use, copy or distribute this file. 
   VRHFIN =Fe:  3pd7s1                                                                              
   LEXCH  = PE                                                                                      
   EATOM  =  2457.4239 eV,  180.6156 Ry                                                             
                                                                                                    
   TITEL  = PAW_PBE Fe_pv 02Aug2007                                                                 
   LULTRA =        F    use ultrasoft PP ?                                                          
   IUNSCR =        1    unscreen: 0-lin 1-nonlin 2-no                                               
   RPACOR =    1.750    partial core radius                                                         
   POMASS =   55.847; ZVAL   =   14.000    mass and valenz                                          
   RCORE  =    2.200    outmost cutoff radius                                                       
   RWIGS  =    2.200; RWIGS  =    1.164    wigner-seitz radius (au A)                               
   ENMAX  =  293.238; ENMIN  =  219.928 eV                                                          
   ICORE  =        3    local potential                                                             
   LCOR   =        T    correct aug charges                                                         
   LPAW   =        T    paw PP                                                                      
   EAUG   =  578.342                                                                                
   DEXC   =    0.000                                                                                
   RMAX   =    2.249    core radius for proj-oper                                                   
   RAUG   =    1.300    factor for augmentation sphere                                              
   RDEP   =    2.296    radius for radial grids                                                     
   RDEPT  =    1.766    core radius for aug-charge                                                  
                                                                                                    
   Atomic configuration                                                                             
    8 entries                                                                                       
     n  l   j            E        occ.                                                              
     1  0  0.50     -6993.8440   2.0000                                                             
     2  0  0.50      -814.6047   2.0000                                                             
     2  1  1.50      -693.3689   6.0000                                                             
     3  0  0.50       -89.4732   2.0000                                                             
     3  1  1.50       -55.6373   6.0000                                                             
     3  2  2.50        -3.8151   7.0000                                                             
     4  0  0.50        -4.2551   1.0000                                                             
     4  3  2.50        -1.3606   0.0000                                                             
   Description                                                                                      
     l       E           TYP  RCUT    TYP  RCUT                                                     
     1    -55.6372668     23  2.000                                                                 
     1     -5.4423304     23  2.000                                                                 
     2     -3.8151096     23  2.200                                                                 
     2     -5.1756922     23  2.200                                                                 
     0     -4.2550951     23  2.200                                                                 
     0     27.2116520     23  2.200                                                                 
     3     -1.3605826     23  2.200                                                                 
  local pseudopotential read in
  partial core-charges read in
  partial kinetic energy density read in
  atomic valenz-charges read in
  non local Contribution for L=           1  read in
    real space projection operators read in
  non local Contribution for L=           1  read in
    real space projection operators read in
  non local Contribution for L=           2  read in
    real space projection operators read in
  non local Contribution for L=           2  read in
    real space projection operators read in
  non local Contribution for L=           0  read in
    real space projection operators read in
  non local Contribution for L=           0  read in
    real space projection operators read in
    PAW grid and wavefunctions read in
 
   number of l-projection  operators is LMAX  =           6
   number of lm-projection operators is LMMAX =          18
 
 POTCAR:    PAW_PBE Pt 04Feb2005                  
   SHA256 =  3ed90460adef76debcff1cfb73ee1349b515b1a3db03439735b44de3a8db7dc8 Pt/POTCAR             
   COPYR  = (c) Copyright 04Feb2005 Georg Kresse                                                    
   COPYR  = This file is part of the software VASP. Any use, copying, and all other rights are regul
   COPYR  = If you do not have a valid VASP license, you may not use, copy or distribute this file. 
   VRHFIN =Pt: s1d9                                                                                 
   LEXCH  = PE                                                                                      
   EATOM  =   729.1176 eV,   53.5886 Ry                                                             
                                                                                                    
   TITEL  = PAW_PBE Pt 04Feb2005                                                                    
   LULTRA =        F    use ultrasoft PP ?                                                          
   IUNSCR =        1    unscreen: 0-lin 1-nonlin 2-no                                               
   RPACOR =    2.330    partial core radius                                                         
   POMASS =  195.080; ZVAL   =   10.000    mass and valenz                                          
   RCORE  =    2.600    outmost cutoff radius                                                       
   RWIGS  =    2.750; RWIGS  =    1.455    wigner-seitz radius (au A)                               
   ENMAX  =  230.283; ENMIN  =  172.712 eV                                                          
   ICORE  =        3    local potential                                                             
   LCOR   =        T    correct aug charges                                                         
   LPAW   =        T    paw PP                                                                      
   EAUG   =  358.966                                                                                
   DEXC   =    0.000                                                                                
   RMAX   =    2.658    core radius for proj-oper                                                   
   RAUG   =    1.300    factor for augmentation sphere                                              
   RDEP   =    2.761    radius for radial grids                                                     
   RDEPT  =    2.203    core radius for aug-charge                                                  
                                                                                                    
   Atomic configuration                                                                             
   16 entries                                                                                       
     n  l   j            E        occ.                                                              
     1  0  0.50    -78401.1885   2.0000                                                             
     2  0  0.50    -13770.7750   2.0000                                                             
     2  1  1.50    -11931.0468   6.0000                                                             
     3  0  0.50     -3234.7234   2.0000                                                             
     3  1  1.50     -2699.2216   6.0000                                                             
     3  2  2.50     -2119.5714  10.0000                                                             
     4  0  0.50      -695.1528   2.0000                                                             
     4  1  1.50      -519.6034   6.0000                                                             
     4  2  2.50      -306.6786  10.0000                                                             
     4  3  3.50       -70.1041  14.0000                                                             
     5  0  0.50      -101.7747   2.0000                                                             
     5  1  1.50       -55.9873   6.0000                                                             
     5  2  2.50        -6.1423   9.0000                                                             
     6  0  0.50        -5.6573   1.0000                                                             
     6  1  1.50        -6.8029   0.0000                                                             
     5  3  2.50        -1.3606   0.0000                                                             
   Description                                                                                      
     l       E           TYP  RCUT    TYP  RCUT                                                     
     2     -6.1423404     23  2.500                                                                 
     2     -7.5029230     23  2.500                                                                 
     0     -5.6573207     23  2.500                                                                 
     0      0.7416693     23  2.500                                                                 
     1     -2.7211652     23  2.600                                                                 
     1     20.4087390     23  2.600                                                                 
     3     -1.3605826     23  2.500                                                                 
  local pseudopotential read in
  partial core-charges read in
  partial kinetic energy density read in
  atomic valenz-charges read in
  non local Contribution for L=           2  read in
    real space projection operators read in
  non local Contribution for L=           2  read in
    real space projection operators read in
  non local Contribution for L=           0  read in
    real space projection operators read in
  non local Contribution for L=           0  read in
    real space projection operators read in
  non local Contribution for L=           1  read in
    real space projection operators read in
  non local Contribution for L=           1  read in
    real space projection operators read in
    PAW grid and wavefunctions read in
 
   number of l-projection  operators is LMAX  =           6
   number of lm-projection operators is LMMAX =          18
 
  PAW_PBE Fe_pv 02Aug2007               :
 energy of atom  1       EATOM=-2457.4239
 kinetic energy error for atom=    0.0062 (will be added to EATOM!!)
  PAW_PBE Pt 04Feb2005                  :
 energy of atom  2       EATOM= -729.1176
 kinetic energy error for atom=    0.0032 (will be added to EATOM!!)
 
 
 POSCAR: Fe9 Pt3
  positions in direct lattice
  velocities in cartesian coordinates


 exchange-correlation table for PE
   RHO(1)=    0.500       N(1)  =     2000
   RHO(2)=  100.500       N(2)  =     4000
 


--------------------------------------------------------------------------------------------------------


 ion  position               nearest neighbor table
   1  0.000  0.500  0.167-   7 2.69   7 2.69   7 2.69   7 2.69  11 2.69  11 2.69   5 2.70   5 2.70
                             4 2.70  10 2.70  10 2.70   4 2.70
   2  0.000  0.500  0.500-   5 2.69   6 2.69   5 2.69   6 2.69   8 2.69   8 2.69   8 2.69   8 2.69
                            12 2.69  11 2.69  11 2.69  12 2.69
   3  0.000  0.500  0.833-   9 2.69   9 2.69   9 2.69   9 2.69  12 2.69  12 2.69   6 2.70   6 2.70
                             4 2.70  10 2.70  10 2.70   4 2.70
   4  0.500  0.500  0.000-  10 2.69  10 2.69  10 2.69  10 2.69   1 2.70   7 2.70   9 2.70   3 2.70
                             1 2.70   3 2.70   7 2.70   9 2.70
   5  0.500  0.500  0.333-   2 2.69   8 2.69   8 2.69   2 2.69  11 2.69  11 2.69  11 2.69  11 2.69
                             1 2.70   7 2.70   1 2.70   7 2.70
   6  0.500  0.500  0.667-   2 2.69   8 2.69   8 2.69   2 2.69  12 2.69  12 2.69  12 2.69  12 2.69
                             9 2.70   3 2.70   9 2.70   3 2.70
   7  0.500  0.000  0.167-   1 2.69   1 2.69   1 2.69   1 2.69  11 2.69  11 2.69   5 2.70   5 2.70
                            10 2.70  10 2.70   4 2.70   4 2.70
   8  0.500  0.000  0.500-   5 2.69   6 2.69   5 2.69   6 2.69   2 2.69   2 2.69   2 2.69   2 2.69
                            12 2.69  11 2.69  12 2.69  11 2.69
   9  0.500  0.000  0.833-   3 2.69   3 2.69   3 2.69   3 2.69  12 2.69  12 2.69   6 2.70   6 2.70
                            10 2.70  10 2.70   4 2.70   4 2.70
  10  0.000  0.000  0.000-   4 2.69   4 2.69   4 2.69   4 2.69   9 2.70   1 2.70   3 2.70   3 2.70
                             1 2.70   7 2.70   9 2.70   7 2.70
  11  0.000  0.000  0.333-   5 2.69   5 2.69   5 2.69   5 2.69   2 2.69   8 2.69   8 2.69   2 2.69
                             1 2.69   7 2.69   7 2.69   1 2.69
  12  0.000  0.000  0.667-   6 2.69   6 2.69   6 2.69   6 2.69   2 2.69   8 2.69   8 2.69   2 2.69
                             3 2.69   3 2.69   9 2.69   9 2.69
 
  LATTYP: Found a simple tetragonal cell.
 ALAT       =     3.8100057154
 C/A-ratio  =     3.0014506464
  
  Lattice vectors:
  
 A1 = (   3.8100057154,   0.0000000000,   0.0000000000)
 A2 = (   0.0000000000,   3.8100057154,   0.0000000000)
 A3 = (   0.0000000000,   0.0000000000,  11.4355441175)


Analysis of symmetry for initial positions (statically):
=====================================================================
 Subroutine PRICEL returns:
 Original cell was already a primitive cell.
 

 Routine SETGRP: Setting up the symmetry group for a 
 simple tetragonal supercell.


 Subroutine GETGRP returns: Found 16 space group operations
 (whereof 16 operations were pure point group operations)
 out of a pool of 16 trial point group operations.


The static configuration has the point symmetry D_4h.


Analysis of symmetry for dynamics (positions and initial velocities):
=====================================================================
 Subroutine PRICEL returns:
 Original cell was already a primitive cell.
 

 Routine SETGRP: Setting up the symmetry group for a 
 simple tetragonal supercell.


 Subroutine GETGRP returns: Found 16 space group operations
 (whereof 16 operations were pure point group operations)
 out of a pool of 16 trial point group operations.


The dynamic configuration has the point symmetry D_4h.


Analysis of structural, dynamic, and magnetic symmetry:
=====================================================================
 Subroutine PRICEL returns:
 Original cell was already a primitive cell.
 

 Routine SETGRP: Setting up the symmetry group for a 
 simple tetragonal supercell.


 Subroutine GETGRP returns: Found 16 space group operations
 (whereof 16 operations were pure point group operations)
 out of a pool of 16 trial point group operations.


The overall configuration has the point symmetry D_4h.


 Subroutine INISYM returns: Found 16 space group operations
 (whereof 16 operations are pure point group operations),
 and found     1 'primitive' translations


----------------------------------------------------------------------------------------

                                     Primitive cell                                     

  volume of cell :     166.0000

  direct lattice vectors                    reciprocal lattice vectors
     3.810005715  0.000000000  0.000000000     0.262466798  0.000000000  0.000000000
     0.000000000  3.810005715  0.000000000     0.000000000  0.262466798  0.000000000
     0.000000000  0.000000000 11.435544117     0.000000000  0.000000000  0.087446648

  length of vectors
     3.810005715  3.810005715 11.435544117     0.262466798  0.262466798  0.087446648

  position of ions in fractional coordinates (direct lattice)
     0.000000000  0.500000000  0.166773688
     0.000000000  0.500000000  0.500000000
     0.000000000  0.500000000  0.833226312
     0.500000000  0.500000000  0.000000000
     0.500000000  0.500000000  0.333477095
     0.500000000  0.500000000  0.666522905
     0.500000000  0.000000000  0.166773688
     0.500000000  0.000000000  0.500000000
     0.500000000  0.000000000  0.833226312
     0.000000000  0.000000000  0.000000000
     0.000000000  0.000000000  0.333408407
     0.000000000  0.000000000  0.666591593

  ion indices of the primitive-cell ions
   primitive index   ion index
                 1           1
                 2           2
                 3           3
                 4           4
                 5           5
                 6           6
                 7           7
                 8           8
                 9           9
                10          10
                11          11
                12          12

----------------------------------------------------------------------------------------

 
 
 KPOINTS: pymatgen with grid density = 8800 / numb

Automatic generation of k-mesh.
 Grid dimensions read from file:
 generate k-points for:   13   13    4

 Generating k-lattice:

  Cartesian coordinates                     Fractional coordinates (reciprocal lattice)
     0.020189754  0.000000000  0.000000000     0.076923077  0.000000000  0.000000000
     0.000000000  0.020189754  0.000000000     0.000000000  0.076923077  0.000000000
     0.000000000  0.000000000  0.021861662     0.000000000  0.000000000  0.250000000

  Length of vectors
     0.020189754  0.020189754  0.021861662

  Shift w.r.t. Gamma in fractional coordinates (k-lattice)
     0.000000000  0.000000000  0.000000000

 
 Subroutine IBZKPT returns following result:
 ===========================================
 
 Found     84 irreducible k-points:
 
 Following reciprocal coordinates:
            Coordinates               Weight
  0.000000  0.000000  0.000000      1.000000
  0.076923  0.000000  0.000000      4.000000
  0.153846  0.000000  0.000000      4.000000
  0.230769  0.000000  0.000000      4.000000
  0.307692  0.000000  0.000000      4.000000
  0.384615  0.000000  0.000000      4.000000
  0.461538  0.000000  0.000000      4.000000
  0.076923  0.076923  0.000000      4.000000
  0.153846  0.076923  0.000000      8.000000
  0.230769  0.076923  0.000000      8.000000
  0.307692  0.076923  0.000000      8.000000
  0.384615  0.076923  0.000000      8.000000
  0.461538  0.076923  0.000000      8.000000
  0.153846  0.153846  0.000000      4.000000
  0.230769  0.153846  0.000000      8.000000
  0.307692  0.153846  0.000000      8.000000
  0.384615  0.153846  0.000000      8.000000
  0.461538  0.153846  0.000000      8.000000
  0.230769  0.230769  0.000000      4.000000
  0.307692  0.230769  0.000000      8.000000
  0.384615  0.230769  0.000000      8.000000
  0.461538  0.230769  0.000000      8.000000
  0.307692  0.307692  0.000000      4.000000
  0.384615  0.307692  0.000000      8.000000
  0.461538  0.307692  0.000000      8.000000
  0.384615  0.384615  0.000000      4.000000
  0.461538  0.384615  0.000000      8.000000
  0.461538  0.461538  0.000000      4.000000
  0.000000  0.000000  0.250000      2.000000
  0.076923  0.000000  0.250000      8.000000
  0.153846  0.000000  0.250000      8.000000
  0.230769  0.000000  0.250000      8.000000
  0.307692  0.000000  0.250000      8.000000
  0.384615  0.000000  0.250000      8.000000
  0.461538  0.000000  0.250000      8.000000
  0.076923  0.076923  0.250000      8.000000
  0.153846  0.076923  0.250000     16.000000
  0.230769  0.076923  0.250000     16.000000
  0.307692  0.076923  0.250000     16.000000
  0.384615  0.076923  0.250000     16.000000
  0.461538  0.076923  0.250000     16.000000
  0.153846  0.153846  0.250000      8.000000
  0.230769  0.153846  0.250000     16.000000
  0.307692  0.153846  0.250000     16.000000
  0.384615  0.153846  0.250000     16.000000
  0.461538  0.153846  0.250000     16.000000
  0.230769  0.230769  0.250000      8.000000
  0.307692  0.230769  0.250000     16.000000
  0.384615  0.230769  0.250000     16.000000
  0.461538  0.230769  0.250000     16.000000
  0.307692  0.307692  0.250000      8.000000
  0.384615  0.307692  0.250000     16.000000
  0.461538  0.307692  0.250000     16.000000
  0.384615  0.384615  0.250000      8.000000
  0.461538  0.384615  0.250000     16.000000
  0.461538  0.461538  0.250000      8.000000
  0.000000  0.000000  0.500000      1.000000
  0.076923  0.000000  0.500000      4.000000
  0.153846  0.000000  0.500000      4.000000
  0.230769  0.000000  0.500000      4.000000
  0.307692  0.000000  0.500000      4.000000
  0.384615  0.000000  0.500000      4.000000
  0.461538  0.000000  0.500000      4.000000
  0.076923  0.076923  0.500000      4.000000
  0.153846  0.076923  0.500000      8.000000
  0.230769  0.076923  0.500000      8.000000
  0.307692  0.076923  0.500000      8.000000
  0.384615  0.076923  0.500000      8.000000
  0.461538  0.076923  0.500000      8.000000
  0.153846  0.153846  0.500000      4.000000
  0.230769  0.153846  0.500000      8.000000
  0.307692  0.153846  0.500000      8.000000
  0.384615  0.153846  0.500000      8.000000
  0.461538  0.153846  0.500000      8.000000
  0.230769  0.230769  0.500000      4.000000
  0.307692  0.230769  0.500000      8.000000
  0.384615  0.230769  0.500000      8.000000
  0.461538  0.230769  0.500000      8.000000
  0.307692  0.307692  0.500000      4.000000
  0.384615  0.307692  0.500000      8.000000
  0.461538  0.307692  0.500000      8.000000
  0.384615  0.384615  0.500000      4.000000
  0.461538  0.384615  0.500000      8.000000
  0.461538  0.461538  0.500000      4.000000
 
 Following cartesian coordinates:
            Coordinates               Weight
  0.000000  0.000000  0.000000      1.000000
  0.020190  0.000000  0.000000      4.000000
  0.040380  0.000000  0.000000      4.000000
  0.060569  0.000000  0.000000      4.000000
  0.080759  0.000000  0.000000      4.000000
  0.100949  0.000000  0.000000      4.000000
  0.121139  0.000000  0.000000      4.000000
  0.020190  0.020190  0.000000      4.000000
  0.040380  0.020190  0.000000      8.000000
  0.060569  0.020190  0.000000      8.000000
  0.080759  0.020190  0.000000      8.000000
  0.100949  0.020190  0.000000      8.000000
  0.121139  0.020190  0.000000      8.000000
  0.040380  0.040380  0.000000      4.000000
  0.060569  0.040380  0.000000      8.000000
  0.080759  0.040380  0.000000      8.000000
  0.100949  0.040380  0.000000      8.000000
  0.121139  0.040380  0.000000      8.000000
  0.060569  0.060569  0.000000      4.000000
  0.080759  0.060569  0.000000      8.000000
  0.100949  0.060569  0.000000      8.000000
  0.121139  0.060569  0.000000      8.000000
  0.080759  0.080759  0.000000      4.000000
  0.100949  0.080759  0.000000      8.000000
  0.121139  0.080759  0.000000      8.000000
  0.100949  0.100949  0.000000      4.000000
  0.121139  0.100949  0.000000      8.000000
  0.121139  0.121139  0.000000      4.000000
  0.000000  0.000000  0.021862      2.000000
  0.020190  0.000000  0.021862      8.000000
  0.040380  0.000000  0.021862      8.000000
  0.060569  0.000000  0.021862      8.000000
  0.080759  0.000000  0.021862      8.000000
  0.100949  0.000000  0.021862      8.000000
  0.121139  0.000000  0.021862      8.000000
  0.020190  0.020190  0.021862      8.000000
  0.040380  0.020190  0.021862     16.000000
  0.060569  0.020190  0.021862     16.000000
  0.080759  0.020190  0.021862     16.000000
  0.100949  0.020190  0.021862     16.000000
  0.121139  0.020190  0.021862     16.000000
  0.040380  0.040380  0.021862      8.000000
  0.060569  0.040380  0.021862     16.000000
  0.080759  0.040380  0.021862     16.000000
  0.100949  0.040380  0.021862     16.000000
  0.121139  0.040380  0.021862     16.000000
  0.060569  0.060569  0.021862      8.000000
  0.080759  0.060569  0.021862     16.000000
  0.100949  0.060569  0.021862     16.000000
  0.121139  0.060569  0.021862     16.000000
  0.080759  0.080759  0.021862      8.000000
  0.100949  0.080759  0.021862     16.000000
  0.121139  0.080759  0.021862     16.000000
  0.100949  0.100949  0.021862      8.000000
  0.121139  0.100949  0.021862     16.000000
  0.121139  0.121139  0.021862      8.000000
  0.000000  0.000000  0.043723      1.000000
  0.020190  0.000000  0.043723      4.000000
  0.040380  0.000000  0.043723      4.000000
  0.060569  0.000000  0.043723      4.000000
  0.080759  0.000000  0.043723      4.000000
  0.100949  0.000000  0.043723      4.000000
  0.121139  0.000000  0.043723      4.000000
  0.020190  0.020190  0.043723      4.000000
  0.040380  0.020190  0.043723      8.000000
  0.060569  0.020190  0.043723      8.000000
  0.080759  0.020190  0.043723      8.000000
  0.100949  0.020190  0.043723      8.000000
  0.121139  0.020190  0.043723      8.000000
  0.040380  0.040380  0.043723      4.000000
  0.060569  0.040380  0.043723      8.000000
  0.080759  0.040380  0.043723      8.000000
  0.100949  0.040380  0.043723      8.000000
  0.121139  0.040380  0.043723      8.000000
  0.060569  0.060569  0.043723      4.000000
  0.080759  0.060569  0.043723      8.000000
  0.100949  0.060569  0.043723      8.000000
  0.121139  0.060569  0.043723      8.000000
  0.080759  0.080759  0.043723      4.000000
  0.100949  0.080759  0.043723      8.000000
  0.121139  0.080759  0.043723      8.000000
  0.100949  0.100949  0.043723      4.000000
  0.121139  0.100949  0.043723      8.000000
  0.121139  0.121139  0.043723      4.000000
 


--------------------------------------------------------------------------------------------------------




 Dimension of arrays:
   k-points           NKPTS =     84   k-points in BZ     NKDIM =     84   number of bands    NBANDS=    128
   number of dos      NEDOS =    301   number of ions     NIONS =     12
   non local maximal  LDIM  =      6   non local SUM 2l+1 LMDIM =     18
   total plane-waves  NPLWV =  70560
   max r-space proj   IRMAX =      1   max aug-charges    IRDMAX=  25941
   dimension x,y,z NGX =    28 NGY =   28 NGZ =   90
   dimension x,y,z NGXF=    56 NGYF=   56 NGZF=  180
   support grid    NGXF=    56 NGYF=   56 NGZF=  180
   ions per type =               9   3
   NGX,Y,Z   is equivalent  to a cutoff of  12.22, 12.22, 13.08 a.u.
   NGXF,Y,Z  is equivalent  to a cutoff of  24.44, 24.44, 26.17 a.u.

 SYSTEM =  unknown system                          
 POSCAR =  Fe9 Pt3                                 

 Startparameter for this run:
   NWRITE =      2    write-flag & timer
   PREC   = accura    normal or accurate (medium, high low for compatibility)
   ISTART =      0    job   : 0-new  1-cont  2-samecut
   ICHARG =      2    charge: 1-file 2-atom 10-const
   ISPIN  =      2    spin polarized calculation?
   LNONCOLLINEAR =      F non collinear calculations
   LSORBIT =      F    spin-orbit coupling
   INIWAV =      1    electr: 0-lowe 1-rand  2-diag
   LASPH  =      F    aspherical Exc in radial PAW
 Electronic Relaxation 1
   ENCUT  =  520.0 eV  38.22 Ry    6.18 a.u.   7.08  7.08 21.26*2*pi/ulx,y,z
   ENINI  =  520.0     initial cutoff
   ENAUG  =  578.3 eV  augmentation charge cutoff
   NELM   =    200;   NELMIN=  2; NELMDL=  0     # of ELM steps 
   EDIFF  = 0.1E-05   stopping-criterion for ELM
   LREAL  =      F    real-space projection
   NLSPLINE    = F    spline interpolate recip. space projectors
   LCOMPAT=      F    compatible to vasp.4.4
   GGA_COMPAT  = T    GGA compatible to vasp.4.4-vasp.4.6
   LMAXPAW     = -100 max onsite density
   LMAXMIX     =    2 max onsite mixed and CHGCAR
   VOSKOWN=      0    Vosko Wilk Nusair interpolation
   ROPT   =    0.00000   0.00000
 Ionic relaxation
   EDIFFG = -.1E-01   stopping-criterion for IOM
   NSW    =    100    number of steps for IOM
   NBLOCK =      1;   KBLOCK =    100    inner block; outer block 
   IBRION =      2    ionic relax: 0-MD 1-quasi-New 2-CG
   NFREE  =      1    steps in history (QN), initial steepest desc. (CG)
   ISIF   =      4    stress and relaxation
   IWAVPR =     11    prediction:  0-non 1-charg 2-wave 3-comb
   ISYM   =      2    0-nonsym 1-usesym 2-fastsym
   LCORR  =      T    Harris-Foulkes like correction to forces

   POTIM  = 0.5000    time-step for ionic-motion
   TEIN   =    0.0    initial temperature
   TEBEG  =    0.0;   TEEND  =   0.0 temperature during run
   SMASS  =  -3.00    Nose mass-parameter (am)
   estimated Nose-frequenzy (Omega)   =  0.10E-29 period in steps = 0.13E+47 mass=  -0.332E-27a.u.
   SCALEE = 1.0000    scale energy and forces
   NPACO  =    256;   APACO  = 10.0  distance and # of slots for P.C.
   PSTRESS=    0.0 pullay stress

  Mass of Ions in am
   POMASS =  55.85195.08
  Ionic Valenz
   ZVAL   =  14.00 10.00
  Atomic Wigner-Seitz radii
   RWIGS  =  -1.00 -1.00
  virtual crystal weights 
   VCA    =   1.00  1.00
   NELECT =     156.0000    total number of electrons
   NUPDOWN=      -1.0000    fix difference up-down

 DOS related values:
   EMIN   =  10.00;   EMAX   =-10.00  energy-range for DOS
   EFERMI =   0.00;   METHOD = LEGACY      
   ISMEAR =     1;   SIGMA  =   0.20  broadening in eV -4-tet -1-fermi 0-gaus

 Electronic relaxation 2 (details)
   IALGO  =     58    algorithm
   LDIAG  =      T    sub-space diagonalisation (order eigenvalues)
   LSUBROT=      F    optimize rotation matrix (better conditioning)
   TURBO    =      0    0=normal 1=particle mesh
   IRESTART =      0    0=no restart 2=restart with 2 vectors
   NREBOOT  =      0    no. of reboots
   NMIN     =      0    reboot dimension
   EREF     =   0.00    reference energy to select bands
   IMIX   =      4    mixing-type and parameters
     AMIX     =   0.40;   BMIX     =  1.00
     AMIX_MAG =   1.60;   BMIX_MAG =  1.00
     AMIN     =   0.10
     WC   =   100.;   INIMIX=   1;  MIXPRE=   1;  MAXMIX= -45

 Intra band minimization:
   WEIMIN = 0.0010     energy-eigenvalue tresh-hold
   EBREAK =  0.20E-08  absolut break condition
   DEPER  =   0.30     relativ break condition  

   TIME   =   0.40     timestep for ELM

  volume/ion in A,a.u.               =      13.83        93.35
  Fermi-wavevector in a.u.,A,eV,Ry     =   1.603542  3.030255 34.985298  2.571347
  Thomas-Fermi vector in A             =   2.700188
 
 Write flags
   LWAVE        =      F    write WAVECAR
   LDOWNSAMPLE  =      F    k-point downsampling of WAVECAR
   LCHARG       =      T    write CHGCAR
   LVTOT        =      F    write LOCPOT, total local potential
   LVHAR        =      F    write LOCPOT, Hartree potential only
   WRT_POTENTIAL= false  ! write potential to hdf5 file
   LELF         =      F    write electronic localiz. function (ELF)
   LORBIT       =     11    0 simple, 1 ext, 2 COOP (PROOUT), +10 PAW based schemes


 Dipole corrections
   LMONO      =      F    monopole corrections only (constant potential shift)
   LDIPOL     =      F    correct potential (dipole corrections)
   IDIPOL     =      0    1-x, 2-y, 3-z, 4-all directions 
   EPSILON    =  1.0000000 bulk dielectric constant
   LVACPOTAV  =      F  vacuum potentials using an averaging scheme for the charge density
   VACPOTFLAT =  0.1000000 required flatness to determine vacuum potential
 Exchange correlation treatment:
   GGA     = PE    functional components
   XC_C    = 1    coefficients multiplying the functional components
   LIBXC   =     F    Libxc                    
   VOSKOWN =     0    Vosko Wilk Nusair interpolation
   LHFCALC =     F    Hartree Fock is set to
   LHFONE  =     F    Hartree Fock one center treatment
   AEXX    =    0.0000 exact exchange contribution

 Parameters of functionals:
   PE:
     No parameter
 
 Van der Waals corrections
   IVDW    =     0    specifies the selected vdW correction

 Linear response parameters
   LEPSILON=     F    determine dielectric tensor
   LRPA    =     F    only Hartree local field effects (RPA)
   LNABLA  =     F    use nabla operator in PAW spheres
   LVEL    =     F    velocity operator in full k-point grid
   CSHIFT  =0.1000    complex shift for real part using Kramers Kronig
   OMEGAMAX=  -1.0    maximum frequency
   DEG_THRESHOLD= 0.2000000E-02 threshold for treating states as degnerate
   RTIME   =   -0.100 relaxation time in fs
  (WPLASMAI=    0.000 imaginary part of plasma frequency in eV, 0.658/RTIME)
   DFIELD  = 0.0000000 0.0000000 0.0000000 field for delta impulse in time
 
  Optional k-point grid parameters
   LKPOINTS_OPT  =     F    use optional k-point grid
   KPOINTS_OPT_MODE=     1    mode for optional k-point grid
 
 Orbital magnetization related:
   ORBITALMAG=     F  switch on orbital magnetization
   LCHIMAG   =     F  perturbation theory with respect to B field
   DQ        =  0.001000  dq finite difference perturbation B field
   LLRAUG    =     F  two centre corrections for induced B field
   LBONE     =     F  B-component reconstruction in AE one-centre
   LVGVCALC  =     T  calculate vGv susceptibility
   LVGVAPPL  =     F  apply vGv susceptibility instead of pGv for G=0

 Random number generation:
   RANDOM_GENERATOR = DEFAULT
   PCG_SEED         = not used


--------------------------------------------------------------------------------------------------------


 conjugate gradient relaxation of ions
 charge density and potential will be updated during run
 spin polarized calculation
 Conjugate gradient for all bands (Freysoldt, et al. PRB 79, 241103 (2009))
 preconditioned conjugated gradient                                        
 perform sub-space diagonalisation
    before iterative eigenvector-optimisation
 modified Broyden-mixing scheme, WC =      100.0
 initial mixing is a Kerker type mixing with AMIX =  0.4000 and BMIX =      1.0000
 Hartree-type preconditioning will be used
 using additional bands           50
 reciprocal scheme for non local part
 use partial core corrections
 no Harris-corrections to forces 
 use gradient corrections 
 use of overlap-Matrix (Vanderbilt PP)
 Methfessel and Paxton  Order N= 1 SIGMA  =   0.20


--------------------------------------------------------------------------------------------------------


  energy-cutoff  :      520.00
  volume of cell :      166.00
      direct lattice vectors                 reciprocal lattice vectors
     3.810005715  0.000000000  0.000000000     0.262466798  0.000000000  0.000000000
     0.000000000  3.810005715  0.000000000     0.000000000  0.262466798  0.000000000
     0.000000000  0.000000000 11.435544117     0.000000000  0.000000000  0.087446648

  length of vectors
     3.810005715  3.810005715 11.435544117     0.262466798  0.262466798  0.087446648


 
 k-points in units of 2pi/SCALE and weight: pymatgen with grid density = 8800 / numb
   0.00000000  0.00000000  0.00000000       0.001
   0.02018975  0.00000000  0.00000000       0.006
   0.04037951  0.00000000  0.00000000       0.006
   0.06056926  0.00000000  0.00000000       0.006
   0.08075901  0.00000000  0.00000000       0.006
   0.10094877  0.00000000  0.00000000       0.006
   0.12113852  0.00000000  0.00000000       0.006
   0.02018975  0.02018975  0.00000000       0.006
   0.04037951  0.02018975  0.00000000       0.012
   0.06056926  0.02018975  0.00000000       0.012
   0.08075901  0.02018975  0.00000000       0.012
   0.10094877  0.02018975  0.00000000       0.012
   0.12113852  0.02018975  0.00000000       0.012
   0.04037951  0.04037951  0.00000000       0.006
   0.06056926  0.04037951  0.00000000       0.012
   0.08075901  0.04037951  0.00000000       0.012
   0.10094877  0.04037951  0.00000000       0.012
   0.12113852  0.04037951  0.00000000       0.012
   0.06056926  0.06056926  0.00000000       0.006
   0.08075901  0.06056926  0.00000000       0.012
   0.10094877  0.06056926  0.00000000       0.012
   0.12113852  0.06056926  0.00000000       0.012
   0.08075901  0.08075901  0.00000000       0.006
   0.10094877  0.08075901  0.00000000       0.012
   0.12113852  0.08075901  0.00000000       0.012
   0.10094877  0.10094877  0.00000000       0.006
   0.12113852  0.10094877  0.00000000       0.012
   0.12113852  0.12113852  0.00000000       0.006
   0.00000000  0.00000000  0.02186166       0.003
   0.02018975  0.00000000  0.02186166       0.012
   0.04037951  0.00000000  0.02186166       0.012
   0.06056926  0.00000000  0.02186166       0.012
   0.08075901  0.00000000  0.02186166       0.012
   0.10094877  0.00000000  0.02186166       0.012
   0.12113852  0.00000000  0.02186166       0.012
   0.02018975  0.02018975  0.02186166       0.012
   0.04037951  0.02018975  0.02186166       0.024
   0.06056926  0.02018975  0.02186166       0.024
   0.08075901  0.02018975  0.02186166       0.024
   0.10094877  0.02018975  0.02186166       0.024
   0.12113852  0.02018975  0.02186166       0.024
   0.04037951  0.04037951  0.02186166       0.012
   0.06056926  0.04037951  0.02186166       0.024
   0.08075901  0.04037951  0.02186166       0.024
   0.10094877  0.04037951  0.02186166       0.024
   0.12113852  0.04037951  0.02186166       0.024
   0.06056926  0.06056926  0.02186166       0.012
   0.08075901  0.06056926  0.02186166       0.024
   0.10094877  0.06056926  0.02186166       0.024
   0.12113852  0.06056926  0.02186166       0.024
   0.08075901  0.08075901  0.02186166       0.012
   0.10094877  0.08075901  0.02186166       0.024
   0.12113852  0.08075901  0.02186166       0.024
   0.10094877  0.10094877  0.02186166       0.012
   0.12113852  0.10094877  0.02186166       0.024
   0.12113852  0.12113852  0.02186166       0.012
   0.00000000  0.00000000  0.04372332       0.001
   0.02018975  0.00000000  0.04372332       0.006
   0.04037951  0.00000000  0.04372332       0.006
   0.06056926  0.00000000  0.04372332       0.006
   0.08075901  0.00000000  0.04372332       0.006
   0.10094877  0.00000000  0.04372332       0.006
   0.12113852  0.00000000  0.04372332       0.006
   0.02018975  0.02018975  0.04372332       0.006
   0.04037951  0.02018975  0.04372332       0.012
   0.06056926  0.02018975  0.04372332       0.012
   0.08075901  0.02018975  0.04372332       0.012
   0.10094877  0.02018975  0.04372332       0.012
   0.12113852  0.02018975  0.04372332       0.012
   0.04037951  0.04037951  0.04372332       0.006
   0.06056926  0.04037951  0.04372332       0.012
   0.08075901  0.04037951  0.04372332       0.012
   0.10094877  0.04037951  0.04372332       0.012
   0.12113852  0.04037951  0.04372332       0.012
   0.06056926  0.06056926  0.04372332       0.006
   0.08075901  0.06056926  0.04372332       0.012
   0.10094877  0.06056926  0.04372332       0.012
   0.12113852  0.06056926  0.04372332       0.012
   0.08075901  0.08075901  0.04372332       0.006
   0.10094877  0.08075901  0.04372332       0.012
   0.12113852  0.08075901  0.04372332       0.012
   0.10094877  0.10094877  0.04372332       0.006
   0.12113852  0.10094877  0.04372332       0.012
   0.12113852  0.12113852  0.04372332       0.006
 
 k-points in reciprocal lattice and weights: pymatgen with grid density = 8800 / numb
   0.00000000  0.00000000  0.00000000       0.001
   0.07692308  0.00000000  0.00000000       0.006
   0.15384615  0.00000000  0.00000000       0.006
   0.23076923  0.00000000  0.00000000       0.006
   0.30769231  0.00000000  0.00000000       0.006
   0.38461538  0.00000000  0.00000000       0.006
   0.46153846  0.00000000  0.00000000       0.006
   0.07692308  0.07692308  0.00000000       0.006
   0.15384615  0.07692308  0.00000000       0.012
   0.23076923  0.07692308  0.00000000       0.012
   0.30769231  0.07692308  0.00000000       0.012
   0.38461538  0.07692308  0.00000000       0.012
   0.46153846  0.07692308  0.00000000       0.012
   0.15384615  0.15384615  0.00000000       0.006
   0.23076923  0.15384615  0.00000000       0.012
   0.30769231  0.15384615  0.00000000       0.012
   0.38461538  0.15384615  0.00000000       0.012
   0.46153846  0.15384615  0.00000000       0.012
   0.23076923  0.23076923  0.00000000       0.006
   0.30769231  0.23076923  0.00000000       0.012
   0.38461538  0.23076923  0.00000000       0.012
   0.46153846  0.23076923  0.00000000       0.012
   0.30769231  0.30769231  0.00000000       0.006
   0.38461538  0.30769231  0.00000000       0.012
   0.46153846  0.30769231  0.00000000       0.012
   0.38461538  0.38461538  0.00000000       0.006
   0.46153846  0.38461538  0.00000000       0.012
   0.46153846  0.46153846  0.00000000       0.006
   0.00000000  0.00000000  0.25000000       0.003
   0.07692308  0.00000000  0.25000000       0.012
   0.15384615  0.00000000  0.25000000       0.012
   0.23076923  0.00000000  0.25000000       0.012
   0.30769231  0.00000000  0.25000000       0.012
   0.38461538  0.00000000  0.25000000       0.012
   0.46153846  0.00000000  0.25000000       0.012
   0.07692308  0.07692308  0.25000000       0.012
   0.15384615  0.07692308  0.25000000       0.024
   0.23076923  0.07692308  0.25000000       0.024
   0.30769231  0.07692308  0.25000000       0.024
   0.38461538  0.07692308  0.25000000       0.024
   0.46153846  0.07692308  0.25000000       0.024
   0.15384615  0.15384615  0.25000000       0.012
   0.23076923  0.15384615  0.25000000       0.024
   0.30769231  0.15384615  0.25000000       0.024
   0.38461538  0.15384615  0.25000000       0.024
   0.46153846  0.15384615  0.25000000       0.024
   0.23076923  0.23076923  0.25000000       0.012
   0.30769231  0.23076923  0.25000000       0.024
   0.38461538  0.23076923  0.25000000       0.024
   0.46153846  0.23076923  0.25000000       0.024
   0.30769231  0.30769231  0.25000000       0.012
   0.38461538  0.30769231  0.25000000       0.024
   0.46153846  0.30769231  0.25000000       0.024
   0.38461538  0.38461538  0.25000000       0.012
   0.46153846  0.38461538  0.25000000       0.024
   0.46153846  0.46153846  0.25000000       0.012
   0.00000000  0.00000000  0.50000000       0.001
   0.07692308  0.00000000  0.50000000       0.006
   0.15384615  0.00000000  0.50000000       0.006
   0.23076923  0.00000000  0.50000000       0.006
   0.30769231  0.00000000  0.50000000       0.006
   0.38461538  0.00000000  0.50000000       0.006
   0.46153846  0.00000000  0.50000000       0.006
   0.07692308  0.07692308  0.50000000       0.006
   0.15384615  0.07692308  0.50000000       0.012
   0.23076923  0.07692308  0.50000000       0.012
   0.30769231  0.07692308  0.50000000       0.012
   0.38461538  0.07692308  0.50000000       0.012
   0.46153846  0.07692308  0.50000000       0.012
   0.15384615  0.15384615  0.50000000       0.006
   0.23076923  0.15384615  0.50000000       0.012
   0.30769231  0.15384615  0.50000000       0.012
   0.38461538  0.15384615  0.50000000       0.012
   0.46153846  0.15384615  0.50000000       0.012
   0.23076923  0.23076923  0.50000000       0.006
   0.30769231  0.23076923  0.50000000       0.012
   0.38461538  0.23076923  0.50000000       0.012
   0.46153846  0.23076923  0.50000000       0.012
   0.30769231  0.30769231  0.50000000       0.006
   0.38461538  0.30769231  0.50000000       0.012
   0.46153846  0.30769231  0.50000000       0.012
   0.38461538  0.38461538  0.50000000       0.006
   0.46153846  0.38461538  0.50000000       0.012
   0.46153846  0.46153846  0.50000000       0.006
 
 position of ions in fractional coordinates (direct lattice) 
   0.00000000  0.50000000  0.16677369
   0.00000000  0.50000000  0.50000000
   0.00000000  0.50000000  0.83322631
   0.50000000  0.50000000  0.00000000
   0.50000000  0.50000000  0.33347709
   0.50000000  0.50000000  0.66652291
   0.50000000  0.00000000  0.16677369
   0.50000000  0.00000000  0.50000000
   0.50000000  0.00000000  0.83322631
   0.00000000  0.00000000  0.00000000
   0.00000000  0.00000000  0.33340841
   0.00000000  0.00000000  0.66659159
 
 position of ions in cartesian coordinates  (Angst):
   0.00000000  1.90500286  1.90714786
   0.00000000  1.90500286  5.71777206
   0.00000000  1.90500286  9.52839626
   1.90500286  1.90500286  0.00000000
   1.90500286  1.90500286  3.81349203
   1.90500286  1.90500286  7.62205209
   1.90500286  0.00000000  1.90714786
   1.90500286  0.00000000  5.71777206
   1.90500286  0.00000000  9.52839626
   0.00000000  0.00000000  0.00000000
   0.00000000  0.00000000  3.81270655
   0.00000000  0.00000000  7.62283756
 


--------------------------------------------------------------------------------------------------------


 k-point     1 :   0.0000 0.0000 0.0000  plane waves:    4467
 k-point     2 :   0.0769 0.0000 0.0000  plane waves:    4443
 k-point     3 :   0.1538 0.0000 0.0000  plane waves:    4456
 k-point     4 :   0.2308 0.0000 0.0000  plane waves:    4460
 k-point     5 :   0.3077 0.0000 0.0000  plane waves:    4478
 k-point     6 :   0.3846 0.0000 0.0000  plane waves:    4472
 k-point     7 :   0.4615 0.0000 0.0000  plane waves:    4470
 k-point     8 :   0.0769 0.0769 0.0000  plane waves:    4452
 k-point     9 :   0.1538 0.0769 0.0000  plane waves:    4454
 k-point    10 :   0.2308 0.0769 0.0000  plane waves:    4461
 k-point    11 :   0.3077 0.0769 0.0000  plane waves:    4461
 k-point    12 :   0.3846 0.0769 0.0000  plane waves:    4470
 k-point    13 :   0.4615 0.0769 0.0000  plane waves:    4469
 k-point    14 :   0.1538 0.1538 0.0000  plane waves:    4454
 k-point    15 :   0.2308 0.1538 0.0000  plane waves:    4459
 k-point    16 :   0.3077 0.1538 0.0000  plane waves:    4469
 k-point    17 :   0.3846 0.1538 0.0000  plane waves:    4478
 k-point    18 :   0.4615 0.1538 0.0000  plane waves:    4482
 k-point    19 :   0.2308 0.2308 0.0000  plane waves:    4462
 k-point    20 :   0.3077 0.2308 0.0000  plane waves:    4469
 k-point    21 :   0.3846 0.2308 0.0000  plane waves:    4471
 k-point    22 :   0.4615 0.2308 0.0000  plane waves:    4491
 k-point    23 :   0.3077 0.3077 0.0000  plane waves:    4454
 k-point    24 :   0.3846 0.3077 0.0000  plane waves:    4469
 k-point    25 :   0.4615 0.3077 0.0000  plane waves:    4488
 k-point    26 :   0.3846 0.3846 0.0000  plane waves:    4478
 k-point    27 :   0.4615 0.3846 0.0000  plane waves:    4485
 k-point    28 :   0.4615 0.4615 0.0000  plane waves:    4472
 k-point    29 :   0.0000 0.0000 0.2500  plane waves:    4455
 k-point    30 :   0.0769 0.0000 0.2500  plane waves:    4431
 k-point    31 :   0.1538 0.0000 0.2500  plane waves:    4442
 k-point    32 :   0.2308 0.0000 0.2500  plane waves:    4455
 k-point    33 :   0.3077 0.0000 0.2500  plane waves:    4476
 k-point    34 :   0.3846 0.0000 0.2500  plane waves:    4483
 k-point    35 :   0.4615 0.0000 0.2500  plane waves:    4477
 k-point    36 :   0.0769 0.0769 0.2500  plane waves:    4433
 k-point    37 :   0.1538 0.0769 0.2500  plane waves:    4448
 k-point    38 :   0.2308 0.0769 0.2500  plane waves:    4461
 k-point    39 :   0.3077 0.0769 0.2500  plane waves:    4469
 k-point    40 :   0.3846 0.0769 0.2500  plane waves:    4474
 k-point    41 :   0.4615 0.0769 0.2500  plane waves:    4477
 k-point    42 :   0.1538 0.1538 0.2500  plane waves:    4450
 k-point    43 :   0.2308 0.1538 0.2500  plane waves:    4468
 k-point    44 :   0.3077 0.1538 0.2500  plane waves:    4477
 k-point    45 :   0.3846 0.1538 0.2500  plane waves:    4477
 k-point    46 :   0.4615 0.1538 0.2500  plane waves:    4480
 k-point    47 :   0.2308 0.2308 0.2500  plane waves:    4470
 k-point    48 :   0.3077 0.2308 0.2500  plane waves:    4469
 k-point    49 :   0.3846 0.2308 0.2500  plane waves:    4476
 k-point    50 :   0.4615 0.2308 0.2500  plane waves:    4480
 k-point    51 :   0.3077 0.3077 0.2500  plane waves:    4469
 k-point    52 :   0.3846 0.3077 0.2500  plane waves:    4472
 k-point    53 :   0.4615 0.3077 0.2500  plane waves:    4481
 k-point    54 :   0.3846 0.3846 0.2500  plane waves:    4472
 k-point    55 :   0.4615 0.3846 0.2500  plane waves:    4475
 k-point    56 :   0.4615 0.4615 0.2500  plane waves:    4483
 k-point    57 :   0.0000 0.0000 0.5000  plane waves:    4410
 k-point    58 :   0.0769 0.0000 0.5000  plane waves:    4418
 k-point    59 :   0.1538 0.0000 0.5000  plane waves:    4424
 k-point    60 :   0.2308 0.0000 0.5000  plane waves:    4464
 k-point    61 :   0.3077 0.0000 0.5000  plane waves:    4484
 k-point    62 :   0.3846 0.0000 0.5000  plane waves:    4476
 k-point    63 :   0.4615 0.0000 0.5000  plane waves:    4472
 k-point    64 :   0.0769 0.0769 0.5000  plane waves:    4418
 k-point    65 :   0.1538 0.0769 0.5000  plane waves:    4440
 k-point    66 :   0.2308 0.0769 0.5000  plane waves:    4460
 k-point    67 :   0.3077 0.0769 0.5000  plane waves:    4474
 k-point    68 :   0.3846 0.0769 0.5000  plane waves:    4478
 k-point    69 :   0.4615 0.0769 0.5000  plane waves:    4478
 k-point    70 :   0.1538 0.1538 0.5000  plane waves:    4438
 k-point    71 :   0.2308 0.1538 0.5000  plane waves:    4470
 k-point    72 :   0.3077 0.1538 0.5000  plane waves:    4480
 k-point    73 :   0.3846 0.1538 0.5000  plane waves:    4484
 k-point    74 :   0.4615 0.1538 0.5000  plane waves:    4482
 k-point    75 :   0.2308 0.2308 0.5000  plane waves:    4476
 k-point    76 :   0.3077 0.2308 0.5000  plane waves:    4474
 k-point    77 :   0.3846 0.2308 0.5000  plane waves:    4484
 k-point    78 :   0.4615 0.2308 0.5000  plane waves:    4480
 k-point    79 :   0.3077 0.3077 0.5000  plane waves:    4472
 k-point    80 :   0.3846 0.3077 0.5000  plane waves:    4492
 k-point    81 :   0.4615 0.3077 0.5000  plane waves:    4488
 k-point    82 :   0.3846 0.3846 0.5000  plane waves:    4480
 k-point    83 :   0.4615 0.3846 0.5000  plane waves:    4486
 k-point    84 :   0.4615 0.4615 0.5000  plane waves:    4472

 maximum and minimum number of plane-waves per node :      4492     4410

 maximum number of plane-waves:      4492
 maximum index in each direction: 
   IXMAX=    7   IYMAX=    7   IZMAX=   21
   IXMIN=   -7   IYMIN=   -7   IZMIN=  -21


 serial   3D FFT for wavefunctions
 parallel 3D FFT for charge:
    minimum data exchange during FFTs selected (reduces bandwidth)


 total amount of memory used by VASP MPI-rank0   301408. kBytes
=======================================================================

   base      :      30000. kBytes
   nonl-proj :     110020. kBytes
   fftplans  :        955. kBytes
   grid      :       7297. kBytes
   one-center:        373. kBytes
   wavefun   :     152763. kBytes
 
     INWAV:  cpu time      0.0001: real time      0.0006
 Broyden mixing: mesh for mixing (old mesh)
   NGX = 15   NGY = 15   NGZ = 43
  (NGX  = 56   NGY  = 56   NGZ  =180)
  gives a total of   9675 points

 initial charge density was supplied:
 charge density of overlapping atoms calculated
 number of electron     156.0000000 magnetization      26.4950000
 charge density for first step will be calculated from the start-wavefunctions


--------------------------------------------------------------------------------------------------------


 Maximum index for augmentation-charges         1047 (set IRDMAX)


--------------------------------------------------------------------------------------------------------


 First call to EWALD:  gamma=   0.323
 Maximum number of real-space cells 4x 4x 2
 Maximum number of reciprocal cells 2x 2x 5

    FEWALD:  cpu time      0.0016: real time      0.0017


--------------------------------------- Ionic step        1  -------------------------------------------




--------------------------------------- Iteration      1(   1)  ---------------------------------------


    POTLOK:  cpu time      0.0454: real time      0.0469
    SETDIJ:  cpu time      0.0132: real time      0.0134
    TRIAL :  cpu time      6.2295: real time      6.2757
    CORREC:  cpu time      0.0039: real time      0.0040
    --------------------------------------------
      LOOP:  cpu time      6.4190: real time      6.4714

 eigenvalue-minimisations  : 43040
 total energy-change (2. order) : 0.1771522E+04  (-0.9185717E+04)
 number of electron     156.0000000 magnetization      26.4950000
 augmentation part      156.0000000 magnetization      26.4950000

 Free energy of the ion-electron system (eV)
  ---------------------------------------------------
  alpha Z        PSCENC =      1025.24174436
  Ewald energy   TEWEN  =    -17721.45162231
  -Hartree energ DENC   =     -6182.83436041
  -exchange      EXHF   =         0.00000000
  -V(xc)+E(xc)   XCENC  =       655.27055302
  PAW double counting   =     20093.28019673   -20817.14206742
  entropy T*S    EENTRO =        -0.00272277
  eigenvalues    EBANDS =       415.05700026
  atomic energy  EATOM  =     24304.10294433
  ---------------------------------------------------
  free energy    TOTEN  =      1771.52166579 eV

  energy without entropy =     1771.52438856  energy(sigma->0) =     1771.52257338


--------------------------------------------------------------------------------------------------------




--------------------------------------- Iteration      1(   2)  ---------------------------------------


    TRIAL :  cpu time      6.1514: real time      6.1942
    CORREC:  cpu time      0.0024: real time      0.0025
    --------------------------------------------
      LOOP:  cpu time      6.1718: real time      6.2192

 eigenvalue-minimisations  : 43008
 total energy-change (2. order) :-0.1765009E+04  (-0.1672897E+04)
 number of electron     156.0000000 magnetization      26.4950000
 augmentation part      156.0000000 magnetization      26.4950000

 Free energy of the ion-electron system (eV)
  ---------------------------------------------------
  alpha Z        PSCENC =      1025.24174436
  Ewald energy   TEWEN  =    -17721.45162231
  -Hartree energ DENC   =     -6182.83436041
  -exchange      EXHF   =         0.00000000
  -V(xc)+E(xc)   XCENC  =       655.27055302
  PAW double counting   =     20093.28019673   -20817.14206742
  entropy T*S    EENTRO =        -0.00287353
  eigenvalues    EBANDS =     -1349.95157986
  atomic energy  EATOM  =     24304.10294433
  ---------------------------------------------------
  free energy    TOTEN  =         6.51293490 eV

  energy without entropy =        6.51580843  energy(sigma->0) =        6.51389274


--------------------------------------------------------------------------------------------------------




--------------------------------------- Iteration      1(   3)  ---------------------------------------


    TRIAL :  cpu time      7.4434: real time      7.4929
    CORREC:  cpu time      0.0025: real time      0.0026
    --------------------------------------------
      LOOP:  cpu time      7.4624: real time      7.5172

 eigenvalue-minimisations  : 50688
 total energy-change (2. order) :-0.1087227E+03  (-0.1068832E+03)
 number of electron     156.0000000 magnetization      26.4950000
 augmentation part      156.0000000 magnetization      26.4950000

 Free energy of the ion-electron system (eV)
  ---------------------------------------------------
  alpha Z        PSCENC =      1025.24174436
  Ewald energy   TEWEN  =    -17721.45162231
  -Hartree energ DENC   =     -6182.83436041
  -exchange      EXHF   =         0.00000000
  -V(xc)+E(xc)   XCENC  =       655.27055302
  PAW double counting   =     20093.28019673   -20817.14206742
  entropy T*S    EENTRO =         0.00026067
  eigenvalues    EBANDS =     -1458.67738872
  atomic energy  EATOM  =     24304.10294433
  ---------------------------------------------------
  free energy    TOTEN  =      -102.20973975 eV

  energy without entropy =     -102.21000043  energy(sigma->0) =     -102.20982664


--------------------------------------------------------------------------------------------------------




--------------------------------------- Iteration      1(   4)  ---------------------------------------


    TRIAL :  cpu time      6.5396: real time      6.5845
    CORREC:  cpu time      0.0027: real time      0.0027
    --------------------------------------------
      LOOP:  cpu time      6.5576: real time      6.6084

 eigenvalue-minimisations  : 45696
 total energy-change (2. order) :-0.1649432E+01  (-0.1649027E+01)
 number of electron     156.0000000 magnetization      26.4950000
 augmentation part      156.0000000 magnetization      26.4950000

 Free energy of the ion-electron system (eV)
  ---------------------------------------------------
  alpha Z        PSCENC =      1025.24174436
  Ewald energy   TEWEN  =    -17721.45162231
  -Hartree energ DENC   =     -6182.83436041
  -exchange      EXHF   =         0.00000000
  -V(xc)+E(xc)   XCENC  =       655.27055302
  PAW double counting   =     20093.28019673   -20817.14206742
  entropy T*S    EENTRO =         0.00011165
  eigenvalues    EBANDS =     -1460.32667130
  atomic energy  EATOM  =     24304.10294433
  ---------------------------------------------------
  free energy    TOTEN  =      -103.85917136 eV

  energy without entropy =     -103.85928301  energy(sigma->0) =     -103.85920857


--------------------------------------------------------------------------------------------------------




--------------------------------------- Iteration      1(   5)  ---------------------------------------


    TRIAL :  cpu time      7.7885: real time      7.8391
    CORREC:  cpu time      0.0026: real time      0.0026
    CHARGE:  cpu time      0.1920: real time      0.1939
    --------------------------------------------
      LOOP:  cpu time      7.9994: real time      8.0573

 eigenvalue-minimisations  : 52800
 total energy-change (2. order) :-0.3391766E-01  (-0.3391664E-01)
 number of electron     155.9999872 magnetization      24.5732671
 augmentation part       79.4744364 magnetization      17.2240645

 Free energy of the ion-electron system (eV)
  ---------------------------------------------------
  alpha Z        PSCENC =      1025.24174436
  Ewald energy   TEWEN  =    -17721.45162231
  -Hartree energ DENC   =     -6182.83436041
  -exchange      EXHF   =         0.00000000
  -V(xc)+E(xc)   XCENC  =       655.27055302
  PAW double counting   =     20093.28019673   -20817.14206742
  entropy T*S    EENTRO =         0.00010924
  eigenvalues    EBANDS =     -1460.36058655
  atomic energy  EATOM  =     24304.10294433
  ---------------------------------------------------
  free energy    TOTEN  =      -103.89308902 eV

  energy without entropy =     -103.89319826  energy(sigma->0) =     -103.89312543


--------------------------------------------------------------------------------------------------------




--------------------------------------- Iteration      1(   6)  ---------------------------------------


    POTLOK:  cpu time      0.0244: real time      0.0246
    SETDIJ:  cpu time      0.0080: real time      0.0081
    TRIAL :  cpu time      2.8920: real time      2.9204
    CORREC:  cpu time      1.2299: real time      1.2404
    CHARGE:  cpu time      0.1797: real time      0.1807
    --------------------------------------------
      LOOP:  cpu time      4.3515: real time      4.3963

 eigenvalue-minimisations  :     0
 total energy-change (2. order) : 0.4943571E+02  (-0.3179504E+02)
 number of electron     155.9999864 magnetization      25.0405032
 augmentation part       83.6919546 magnetization      18.3146520

 Free energy of the ion-electron system (eV)
  ---------------------------------------------------
  alpha Z        PSCENC =      1025.24174436
  Ewald energy   TEWEN  =    -17721.45162231
  -Hartree energ DENC   =     -5037.62809178
  -exchange      EXHF   =         0.00000000
  -V(xc)+E(xc)   XCENC  =       609.22666926
  PAW double counting   =     20608.87577602   -21272.25953163
  entropy T*S    EENTRO =         0.01015994
  eigenvalues    EBANDS =     -2570.56537382
  atomic energy  EATOM  =     24304.10294433
  ---------------------------------------------------
  free energy    TOTEN  =       -54.45737634 eV

  energy without entropy =      -54.46753628  energy(sigma->0) =      -54.46076298


--------------------------------------------------------------------------------------------------------




--------------------------------------- Iteration      1(   7)  ---------------------------------------


    POTLOK:  cpu time      0.0234: real time      0.0236
    SETDIJ:  cpu time      0.0078: real time      0.0078
    TRIAL :  cpu time      2.9028: real time      2.9308
    CORREC:  cpu time      1.1499: real time      1.1617
    CHARGE:  cpu time      0.1792: real time      0.1802
    --------------------------------------------
      LOOP:  cpu time      4.2805: real time      4.3261

 eigenvalue-minimisations  :     0
 total energy-change (2. order) :-0.3227074E+02  (-0.1923152E+01)
 number of electron     155.9999864 magnetization      25.2857859
 augmentation part       84.1318473 magnetization      18.6055839

 Free energy of the ion-electron system (eV)
  ---------------------------------------------------
  alpha Z        PSCENC =      1025.24174436
  Ewald energy   TEWEN  =    -17721.45162231
  -Hartree energ DENC   =     -5652.08898657
  -exchange      EXHF   =         0.00000000
  -V(xc)+E(xc)   XCENC  =       634.41749699
  PAW double counting   =     21594.29833444   -22371.77579613
  entropy T*S    EENTRO =         0.00517908
  eigenvalues    EBANDS =     -1899.48238826
  atomic energy  EATOM  =     24304.10294433
  ---------------------------------------------------
  free energy    TOTEN  =       -86.72811322 eV

  energy without entropy =      -86.73329230  energy(sigma->0) =      -86.72983958


--------------------------------------------------------------------------------------------------------




--------------------------------------- Iteration      1(   8)  ---------------------------------------


    POTLOK:  cpu time      0.0229: real time      0.0231
    SETDIJ:  cpu time      0.0080: real time      0.0080
    TRIAL :  cpu time      2.9085: real time      2.9378
    CORREC:  cpu time      1.1347: real time      1.1464
    CHARGE:  cpu time      0.1766: real time      0.1776
    --------------------------------------------
      LOOP:  cpu time      4.2704: real time      4.3168

 eigenvalue-minimisations  :     0
 total energy-change (2. order) :-0.1877199E+01  (-0.1379755E+01)
 number of electron     155.9999864 magnetization      25.4818789
 augmentation part       84.4715687 magnetization      18.8482168

 Free energy of the ion-electron system (eV)
  ---------------------------------------------------
  alpha Z        PSCENC =      1025.24174436
  Ewald energy   TEWEN  =    -17721.45162231
  -Hartree energ DENC   =     -5713.63400257
  -exchange      EXHF   =         0.00000000
  -V(xc)+E(xc)   XCENC  =       637.13737387
  PAW double counting   =     21729.52668320   -22507.85911071
  entropy T*S    EENTRO =         0.00141586
  eigenvalues    EBANDS =     -1841.67450142
  atomic energy  EATOM  =     24304.10294433
  ---------------------------------------------------
  free energy    TOTEN  =       -88.60531218 eV

  energy without entropy =      -88.60672804  energy(sigma->0) =      -88.60578413


--------------------------------------------------------------------------------------------------------




--------------------------------------- Iteration      1(   9)  ---------------------------------------


    POTLOK:  cpu time      0.0231: real time      0.0233
    SETDIJ:  cpu time      0.0077: real time      0.0078
    TRIAL :  cpu time      2.9609: real time      2.9899
    CORREC:  cpu time      1.1396: real time      1.1513
    CHARGE:  cpu time      0.1776: real time      0.1786
    --------------------------------------------
      LOOP:  cpu time      4.3256: real time      4.3732

 eigenvalue-minimisations  :     0
 total energy-change (2. order) :-0.2088043E+01  (-0.4134850E+00)
 number of electron     155.9999864 magnetization      25.5181330
 augmentation part       84.4717513 magnetization      18.8780588

 Free energy of the ion-electron system (eV)
  ---------------------------------------------------
  alpha Z        PSCENC =      1025.24174436
  Ewald energy   TEWEN  =    -17721.45162231
  -Hartree energ DENC   =     -5758.74626293
  -exchange      EXHF   =         0.00000000
  -V(xc)+E(xc)   XCENC  =       639.22694054
  PAW double counting   =     21844.41458978   -22621.63775812
  entropy T*S    EENTRO =         0.00087102
  eigenvalues    EBANDS =     -1801.84534699
  atomic energy  EATOM  =     24304.10294433
  ---------------------------------------------------
  free energy    TOTEN  =       -90.69335549 eV

  energy without entropy =      -90.69422651  energy(sigma->0) =      -90.69364583


--------------------------------------------------------------------------------------------------------




--------------------------------------- Iteration      1(  10)  ---------------------------------------


    POTLOK:  cpu time      0.0231: real time      0.0233
    SETDIJ:  cpu time      0.0076: real time      0.0076
    TRIAL :  cpu time      2.9155: real time      2.9438
    CORREC:  cpu time      1.1453: real time      1.1569
    CHARGE:  cpu time      0.1741: real time      0.1751
    --------------------------------------------
      LOOP:  cpu time      4.2807: real time      4.3289

 eigenvalue-minimisations  :     0
 total energy-change (2. order) :-0.3983484E+00  (-0.1339769E+01)
 number of electron     155.9999864 magnetization      25.9384325
 augmentation part       84.5358499 magnetization      19.2579147

 Free energy of the ion-electron system (eV)
  ---------------------------------------------------
  alpha Z        PSCENC =      1025.24174436
  Ewald energy   TEWEN  =    -17721.45162231
  -Hartree energ DENC   =     -5757.45290327
  -exchange      EXHF   =         0.00000000
  -V(xc)+E(xc)   XCENC  =       639.22027808
  PAW double counting   =     21837.90971110   -22613.63159226
  entropy T*S    EENTRO =        -0.00345982
  eigenvalues    EBANDS =     -1805.03113495
  atomic energy  EATOM  =     24304.10294433
  ---------------------------------------------------
  free energy    TOTEN  =       -91.09170389 eV

  energy without entropy =      -91.08824407  energy(sigma->0) =      -91.09055062


--------------------------------------------------------------------------------------------------------




--------------------------------------- Iteration      1(  11)  ---------------------------------------


    POTLOK:  cpu time      0.0234: real time      0.0236
    SETDIJ:  cpu time      0.0077: real time      0.0077
    TRIAL :  cpu time      3.0049: real time      3.0338
    CORREC:  cpu time      1.1418: real time      1.1543
    CHARGE:  cpu time      0.1741: real time      0.1752
    --------------------------------------------
      LOOP:  cpu time      4.3742: real time      4.4173

 eigenvalue-minimisations  :     0
 total energy-change (2. order) :-0.1349988E+01  (-0.2217386E+00)
 number of electron     155.9999864 magnetization      25.9679728
 augmentation part       84.6486664 magnetization      19.3199612

 Free energy of the ion-electron system (eV)
  ---------------------------------------------------
  alpha Z        PSCENC =      1025.24174436
  Ewald energy   TEWEN  =    -17721.45162231
  -Hartree energ DENC   =     -5754.51390479
  -exchange      EXHF   =         0.00000000
  -V(xc)+E(xc)   XCENC  =       639.51166246
  PAW double counting   =     21780.21254329   -22535.39800447
  entropy T*S    EENTRO =        -0.00303785
  eigenvalues    EBANDS =     -1830.14359515
  atomic energy  EATOM  =     24304.10294433
  ---------------------------------------------------
  free energy    TOTEN  =       -92.44169211 eV

  energy without entropy =      -92.43865426  energy(sigma->0) =      -92.44067949


--------------------------------------------------------------------------------------------------------




--------------------------------------- Iteration      1(  12)  ---------------------------------------


    POTLOK:  cpu time      0.0231: real time      0.0233
    SETDIJ:  cpu time      0.0079: real time      0.0082
    TRIAL :  cpu time      2.9108: real time      2.9422
    CORREC:  cpu time      1.1391: real time      1.1513
    CHARGE:  cpu time      0.1737: real time      0.1746
    --------------------------------------------
      LOOP:  cpu time      4.2716: real time      4.3223

 eigenvalue-minimisations  :     0
 total energy-change (2. order) :-0.2192856E+00  (-0.4244140E+00)
 number of electron     155.9999863 magnetization      25.9739031
 augmentation part       85.0598734 magnetization      19.4577774

 Free energy of the ion-electron system (eV)
  ---------------------------------------------------
  alpha Z        PSCENC =      1025.24174436
  Ewald energy   TEWEN  =    -17721.45162231
  -Hartree energ DENC   =     -5772.27971565
  -exchange      EXHF   =         0.00000000
  -V(xc)+E(xc)   XCENC  =       640.24378205
  PAW double counting   =     21803.97392498   -22558.85262266
  entropy T*S    EENTRO =         0.00041663
  eigenvalues    EBANDS =     -1813.63637496
  atomic energy  EATOM  =     24304.10294433
  ---------------------------------------------------
  free energy    TOTEN  =       -92.66097773 eV

  energy without entropy =      -92.66139436  energy(sigma->0) =      -92.66111660


--------------------------------------------------------------------------------------------------------




--------------------------------------- Iteration      1(  13)  ---------------------------------------


    POTLOK:  cpu time      0.0232: real time      0.0234
    SETDIJ:  cpu time      0.0073: real time      0.0073
    TRIAL :  cpu time      2.9684: real time      2.9975
    CORREC:  cpu time      1.1383: real time      1.1501
    CHARGE:  cpu time      0.1722: real time      0.1731
    --------------------------------------------
      LOOP:  cpu time      4.3278: real time      4.3739

 eigenvalue-minimisations  :     0
 total energy-change (2. order) :-0.4216728E+00  (-0.3515896E-01)
 number of electron     155.9999863 magnetization      25.9929292
 augmentation part       85.0773841 magnetization      19.4869627

 Free energy of the ion-electron system (eV)
  ---------------------------------------------------
  alpha Z        PSCENC =      1025.24174436
  Ewald energy   TEWEN  =    -17721.45162231
  -Hartree energ DENC   =     -5841.06806939
  -exchange      EXHF   =         0.00000000
  -V(xc)+E(xc)   XCENC  =       642.95619660
  PAW double counting   =     21905.37668190   -22665.18376359
  entropy T*S    EENTRO =        -0.00045863
  eigenvalues    EBANDS =     -1743.05717904
  atomic energy  EATOM  =     24304.10294433
  ---------------------------------------------------
  free energy    TOTEN  =       -93.08265051 eV

  energy without entropy =      -93.08219187  energy(sigma->0) =      -93.08249763


--------------------------------------------------------------------------------------------------------




--------------------------------------- Iteration      1(  14)  ---------------------------------------


    POTLOK:  cpu time      0.0232: real time      0.0234
    SETDIJ:  cpu time      0.0075: real time      0.0076
    TRIAL :  cpu time      2.9617: real time      2.9914
    CORREC:  cpu time      1.1334: real time      1.1484
    CHARGE:  cpu time      0.1714: real time      0.1724
    --------------------------------------------
      LOOP:  cpu time      4.3195: real time      4.3658

 eigenvalue-minimisations  :     0
 total energy-change (2. order) :-0.3492602E-01  (-0.3893371E-01)
 number of electron     155.9999863 magnetization      26.0273785
 augmentation part       85.0812638 magnetization      19.5327153

 Free energy of the ion-electron system (eV)
  ---------------------------------------------------
  alpha Z        PSCENC =      1025.24174436
  Ewald energy   TEWEN  =    -17721.45162231
  -Hartree energ DENC   =     -5842.46694436
  -exchange      EXHF   =         0.00000000
  -V(xc)+E(xc)   XCENC  =       643.05562126
  PAW double counting   =     21897.74232809   -22657.54906941
  entropy T*S    EENTRO =        -0.00181111
  eigenvalues    EBANDS =     -1741.79211984
  atomic energy  EATOM  =     24304.10294433
  ---------------------------------------------------
  free energy    TOTEN  =       -93.11757652 eV

  energy without entropy =      -93.11576541  energy(sigma->0) =      -93.11697282


--------------------------------------------------------------------------------------------------------




--------------------------------------- Iteration      1(  15)  ---------------------------------------


    POTLOK:  cpu time      0.0231: real time      0.0235
    SETDIJ:  cpu time      0.0075: real time      0.0075
    TRIAL :  cpu time      2.9070: real time      2.9358
    CORREC:  cpu time      1.1483: real time      1.1610
    CHARGE:  cpu time      0.2060: real time      0.2071
    --------------------------------------------
      LOOP:  cpu time      4.3099: real time      4.3575

 eigenvalue-minimisations  :     0
 total energy-change (2. order) :-0.3827361E-01  (-0.4400488E-01)
 number of electron     155.9999863 magnetization      26.0842418
 augmentation part       85.0653372 magnetization      19.6112901

 Free energy of the ion-electron system (eV)
  ---------------------------------------------------
  alpha Z        PSCENC =      1025.24174436
  Ewald energy   TEWEN  =    -17721.45162231
  -Hartree energ DENC   =     -5840.52066601
  -exchange      EXHF   =         0.00000000
  -V(xc)+E(xc)   XCENC  =       643.05755948
  PAW double counting   =     21877.93458057   -22637.36992247
  entropy T*S    EENTRO =        -0.00418736
  eigenvalues    EBANDS =     -1744.14865697
  atomic energy  EATOM  =     24304.10294433
  ---------------------------------------------------
  free energy    TOTEN  =       -93.15585013 eV

  energy without entropy =      -93.15166277  energy(sigma->0) =      -93.15445435


--------------------------------------------------------------------------------------------------------




--------------------------------------- Iteration      1(  16)  ---------------------------------------


    POTLOK:  cpu time      0.0240: real time      0.0242
    SETDIJ:  cpu time      0.0082: real time      0.0083
    TRIAL :  cpu time      2.9361: real time      2.9643
    CORREC:  cpu time      1.1379: real time      1.1500
    CHARGE:  cpu time      0.1710: real time      0.1718
    --------------------------------------------
      LOOP:  cpu time      4.2933: real time      4.3410

 eigenvalue-minimisations  :     0
 total energy-change (2. order) :-0.4385598E-01  (-0.4572371E-02)
 number of electron     155.9999863 magnetization      26.0930395
 augmentation part       85.0678584 magnetization      19.6289650

 Free energy of the ion-electron system (eV)
  ---------------------------------------------------
  alpha Z        PSCENC =      1025.24174436
  Ewald energy   TEWEN  =    -17721.45162231
  -Hartree energ DENC   =     -5833.90632454
  -exchange      EXHF   =         0.00000000
  -V(xc)+E(xc)   XCENC  =       642.93476691
  PAW double counting   =     21842.94117837   -22601.57503503
  entropy T*S    EENTRO =        -0.00452965
  eigenvalues    EBANDS =     -1751.48317084
  atomic energy  EATOM  =     24304.10294433
  ---------------------------------------------------
  free energy    TOTEN  =       -93.19970611 eV

  energy without entropy =      -93.19517646  energy(sigma->0) =      -93.19819623


--------------------------------------------------------------------------------------------------------




--------------------------------------- Iteration      1(  17)  ---------------------------------------


    POTLOK:  cpu time      0.0229: real time      0.0231
    SETDIJ:  cpu time      0.0083: real time      0.0084
    TRIAL :  cpu time      2.9487: real time      2.9827
    CORREC:  cpu time      1.1449: real time      1.1569
    CHARGE:  cpu time      0.1707: real time      0.1718
    --------------------------------------------
      LOOP:  cpu time      4.3154: real time      4.3651

 eigenvalue-minimisations  :     0
 total energy-change (2. order) :-0.4530836E-02  (-0.1036958E-01)
 number of electron     155.9999863 magnetization      26.1239763
[...]
     61       8.4312      1.00152
     62       8.4329      1.00156
     63       8.5271      1.00915
     64       8.6362      1.03124
     65       8.6501      1.03360
     66       8.6594      1.03471
     67       8.8897      0.62241
     68       8.8954      0.59885
     69       8.8980      0.58829
     70       9.1049     -0.01608
     71       9.1050     -0.01662
     72       9.1343     -0.03129
     73       9.1345     -0.03158
     74       9.3500     -0.00470
     75       9.3502     -0.00466
     76      10.0715     -0.00000
     77      10.0716     -0.00000
     78      10.1709     -0.00000
     79      10.1721     -0.00000
     80      10.1923     -0.00000
     81      10.1934     -0.00000
     82      10.3975     -0.00000
     83      10.3998     -0.00000
     84      10.5938     -0.00000
     85      10.6303     -0.00000
     86      10.7288     -0.00000
     87      10.7410     -0.00000
     88      10.7931     -0.00000
     89      10.8671     -0.00000
     90      10.9091     -0.00000
     91      10.9158     -0.00000
     92      11.2704     -0.00000
     93      11.2737     -0.00000
     94      11.6380     -0.00000
     95      11.6405     -0.00000
     96      11.7007     -0.00000
     97      11.7045     -0.00000
     98      12.1188     -0.00000
     99      12.1214     -0.00000
    100      14.2862      0.00000
    101      16.0112      0.00000
    102      16.0769      0.00000
    103      16.1215      0.00000
    104      17.0140      0.00000
    105      17.0153      0.00000
    106      17.6642      0.00000
    107      17.6669      0.00000
    108      18.2087      0.00000
    109      18.2113      0.00000
    110      18.6936      0.00000
    111      18.6948      0.00000
    112      22.9886      0.00000
    113      22.9924      0.00000
    114      23.5103      0.00000
    115      23.5122      0.00000
    116      23.7992      0.00000
    117      23.8033      0.00000
    118      24.6168      0.00000
    119      24.6178      0.00000
    120      26.1079      0.00000
    121      26.1126      0.00000
    122      26.1673      0.00000
    123      26.4851      0.00000
    124      27.2199      0.00000
    125      27.2211      0.00000
    126      27.6597      0.00000
    127      27.6600      0.00000
    128      28.1976      0.00000


--------------------------------------------------------------------------------------------------------


 soft charge-density along one line, spin component           1
         0         1         2         3         4         5         6         7         8         9
 total charge-density along one line
 
 soft charge-density along one line, spin component           2
         0         1         2         3         4         5         6         7         8         9
 total charge-density along one line
 
 pseudopotential strength for first ion, spin component:           1
-45.827   0.000   0.000   7.965  -0.000  -0.000   0.000  -0.000
  0.000 -45.828   0.000  -0.000   7.966  -0.000  -0.000   0.000
  0.000   0.000 -45.714  -0.000  -0.000   7.919   0.000  -0.000
  7.965  -0.000  -0.000   5.552  -0.000  -0.000  -0.000   0.000
 -0.000   7.966  -0.000  -0.000   5.552  -0.000   0.000  -0.000
 -0.000  -0.000   7.919  -0.000  -0.000   5.562  -0.000   0.000
  0.000  -0.000   0.000  -0.000   0.000  -0.000  -2.744   0.000
 -0.000   0.000  -0.000   0.000  -0.000   0.000   0.000  -2.822
 -0.000   0.000   0.000   0.000  -0.000   0.000  -0.000   0.000
 -0.000  -0.000   0.000   0.000  -0.000   0.000  -0.000   0.000
 -0.000   0.000  -0.000   0.000  -0.000  -0.000   0.000  -0.000
  0.000  -0.000   0.000  -0.000   0.000  -0.000  -3.247   0.000
 -0.000   0.000  -0.000   0.000  -0.000   0.000   0.000  -3.324
 -0.000   0.000   0.000   0.000  -0.000   0.000  -0.000   0.000
 -0.000  -0.000   0.000   0.000  -0.000   0.000  -0.000   0.000
 -0.000   0.000   0.000   0.000  -0.000   0.000   0.000  -0.000
 -0.000   0.000  -0.000  -0.000  -0.000   0.000  -0.000  -0.000
 -0.000   0.000   0.000  -0.000  -0.000  -0.000  -0.000  -0.000
 pseudopotential strength for first ion, spin component:           2
-43.375   0.000  -0.000   6.935  -0.000   0.000  -0.000   0.000
  0.000 -43.375   0.000  -0.000   6.935  -0.000   0.000   0.000
 -0.000   0.000 -43.337   0.000  -0.000   6.918   0.000   0.000
  6.935  -0.000   0.000   5.845  -0.000   0.000   0.000  -0.000
 -0.000   6.935  -0.000  -0.000   5.845  -0.000  -0.000  -0.000
  0.000  -0.000   6.918   0.000  -0.000   5.849  -0.000  -0.000
 -0.000   0.000   0.000   0.000  -0.000  -0.000  -0.801   0.000
  0.000   0.000   0.000  -0.000  -0.000  -0.000   0.000  -0.821
 -0.000   0.000   0.000   0.000  -0.000  -0.000   0.000  -0.000
  0.000  -0.000   0.000  -0.000   0.000  -0.000   0.000  -0.000
 -0.000   0.000  -0.000   0.000   0.000   0.000   0.000  -0.000
 -0.000   0.000   0.000   0.000  -0.000  -0.000  -1.335   0.000
  0.000   0.000   0.000  -0.000  -0.000  -0.000   0.000  -1.355
 -0.000   0.000   0.000   0.000  -0.000  -0.000   0.000  -0.000
  0.000  -0.000   0.000  -0.000   0.000  -0.000   0.000  -0.000
 -0.000   0.000  -0.000   0.000   0.000   0.000   0.000  -0.000
 -0.000  -0.000   0.000  -0.000   0.000   0.000   0.000  -0.000
 -0.000  -0.000   0.000  -0.000   0.000   0.000   0.000  -0.000
 total augmentation occupancy for first ion, spin component:           1
  1.992   0.000   0.000  -0.028  -0.000   0.000  -0.000  -0.000   0.000   0.000   0.000  -0.000   0.000   0.000   0.000  -0.000
  0.000   1.992   0.000   0.000  -0.028   0.000  -0.000   0.000  -0.000   0.000   0.000   0.000   0.000   0.000   0.000  -0.000
  0.000   0.000   1.992   0.000  -0.000  -0.027   0.000  -0.000  -0.000  -0.000  -0.000   0.000   0.000  -0.000   0.000  -0.000
 -0.028   0.000   0.000   0.164  -0.000  -0.000   0.000  -0.000  -0.000   0.000  -0.000   0.000   0.001   0.000   0.000  -0.000
 -0.000  -0.028  -0.000  -0.000   0.164   0.000  -0.000  -0.000  -0.000   0.000   0.000   0.000  -0.000   0.000  -0.000  -0.000
  0.000   0.000  -0.027  -0.000   0.000   0.146   0.000  -0.000  -0.000  -0.000  -0.000   0.000  -0.000   0.000   0.000  -0.000
 -0.000  -0.000   0.000   0.000  -0.000   0.000   2.979   0.000  -0.000   0.000  -0.000  -1.569  -0.000   0.000   0.000  -0.000
 -0.000   0.000  -0.000  -0.000  -0.000  -0.000   0.000   3.259   0.000  -0.000  -0.000   0.000  -2.048   0.000   0.000  -0.000
  0.000  -0.000  -0.000  -0.000  -0.000  -0.000  -0.000   0.000   3.369   0.000   0.175   0.000   0.000  -1.870  -0.000  -0.102
  0.000   0.000  -0.000   0.000   0.000  -0.000   0.000  -0.000   0.000   2.987   0.000   0.000   0.000   0.000  -1.575   0.000
  0.000   0.000  -0.000  -0.000   0.000  -0.000  -0.000  -0.000   0.175   0.000   3.173  -0.000   0.000  -0.102  -0.000  -1.758
 -0.000   0.000   0.000   0.000   0.000   0.000  -1.569   0.000   0.000   0.000  -0.000   1.564   0.000   0.000  -0.000   0.000
  0.000   0.000   0.000   0.001  -0.000  -0.000  -0.000  -2.048   0.000   0.000   0.000   0.000   2.156  -0.000   0.000  -0.000
  0.000   0.000  -0.000   0.000   0.000   0.000   0.000   0.000  -1.870   0.000  -0.102   0.000  -0.000   1.628  -0.000   0.024
  0.000   0.000   0.000   0.000  -0.000   0.000   0.000   0.000  -0.000  -1.575  -0.000  -0.000   0.000  -0.000   1.568   0.000
 -0.000  -0.000  -0.000  -0.000  -0.000  -0.000  -0.000  -0.000  -0.102   0.000  -1.758   0.000  -0.000   0.024   0.000   1.604
 -0.000   0.000   0.000   0.000   0.000  -0.000   0.000   0.000  -0.096   0.000   0.167   0.000  -0.000   0.066  -0.000  -0.116
 -0.000  -0.000  -0.000   0.000  -0.000  -0.000   0.000  -0.000   0.006   0.000  -0.010  -0.000  -0.000  -0.004   0.000   0.006
 total augmentation occupancy for first ion, spin component:           2
 -0.002  -0.000   0.000  -0.010  -0.000   0.000   0.000   0.000   0.000   0.000  -0.000   0.000  -0.000  -0.000  -0.000   0.000
 -0.000  -0.002   0.000  -0.000  -0.010   0.000   0.000   0.000   0.000   0.000  -0.000   0.000   0.000  -0.000   0.000   0.000
  0.000   0.000  -0.002   0.000   0.000  -0.010   0.000   0.000   0.000   0.000   0.000  -0.000   0.000   0.000  -0.000  -0.000
 -0.010  -0.000   0.000  -0.005  -0.000  -0.000  -0.000  -0.000   0.000   0.000   0.000  -0.000   0.000   0.000   0.000   0.000
 -0.000  -0.010   0.000  -0.000  -0.005  -0.000   0.000  -0.000  -0.000  -0.000   0.000  -0.000  -0.000   0.000   0.000   0.000
  0.000   0.000  -0.010  -0.000  -0.000  -0.012   0.000   0.000  -0.000  -0.000  -0.000  -0.000  -0.000  -0.000   0.000  -0.000
  0.000   0.000   0.000  -0.000   0.000   0.000   2.503   0.000   0.000   0.000  -0.000  -1.100  -0.000   0.000   0.000   0.000
  0.000   0.000   0.000  -0.000  -0.000   0.000   0.000   2.554   0.000  -0.000   0.000   0.000  -1.054  -0.000   0.000  -0.000
  0.000   0.000   0.000   0.000  -0.000  -0.000   0.000   0.000   2.842   0.000   0.107   0.000   0.000  -1.216   0.000  -0.097
  0.000   0.000   0.000   0.000  -0.000  -0.000   0.000  -0.000   0.000   2.512  -0.000  -0.000   0.000   0.000  -1.105   0.000
 -0.000  -0.000   0.000   0.000   0.000  -0.000  -0.000   0.000   0.107  -0.000   2.725  -0.000   0.000  -0.097  -0.000  -1.107
  0.000   0.000  -0.000  -0.000  -0.000  -0.000  -1.100   0.000   0.000  -0.000  -0.000   0.288   0.000  -0.000   0.000  -0.000
 -0.000   0.000   0.000   0.000  -0.000  -0.000  -0.000  -1.054   0.000   0.000   0.000   0.000   0.193   0.000   0.000  -0.000
 -0.000  -0.000   0.000   0.000   0.000  -0.000   0.000  -0.000  -1.216   0.000  -0.097  -0.000   0.000   0.393   0.000   0.110
 -0.000   0.000  -0.000   0.000   0.000   0.000   0.000   0.000   0.000  -1.105  -0.000   0.000   0.000   0.000   0.291  -0.000
  0.000   0.000  -0.000   0.000   0.000  -0.000   0.000  -0.000  -0.097   0.000  -1.107  -0.000  -0.000   0.110  -0.000   0.268
 -0.000   0.000   0.000   0.000   0.000  -0.000   0.000   0.000  -0.035  -0.000   0.062  -0.000   0.000   0.035   0.000  -0.061
 -0.000  -0.000  -0.000  -0.000   0.000  -0.000   0.000   0.000   0.003   0.000  -0.005   0.000   0.000  -0.001   0.000   0.001


------------------------ aborting loop because EDIFF is reached ----------------------------------------





 total charge

# of ion       s       p       d       tot
------------------------------------------
    1        0.331   6.292   5.985  12.607
    2        0.331   6.292   5.985  12.608
    3        0.331   6.292   5.985  12.607
    4        0.331   6.292   5.984  12.607
    5        0.331   6.292   5.985  12.608
    6        0.331   6.292   5.985  12.608
    7        0.331   6.292   5.985  12.607
    8        0.331   6.292   5.985  12.608
    9        0.331   6.292   5.985  12.607
   10        0.730   0.629   8.014   9.374
   11        0.730   0.630   8.015   9.375
   12        0.730   0.630   8.015   9.375
--------------------------------------------------
tot          5.168  58.518  77.907 141.593



 magnetization (x)

# of ion       s       p       d       tot
------------------------------------------
    1       -0.000  -0.017   2.859   2.843
    2       -0.000  -0.017   2.858   2.841
    3       -0.000  -0.017   2.859   2.843
    4       -0.000  -0.017   2.862   2.845
    5       -0.000  -0.017   2.859   2.842
    6       -0.000  -0.017   2.859   2.842
    7       -0.000  -0.017   2.859   2.843
    8       -0.000  -0.017   2.858   2.841
    9       -0.000  -0.017   2.859   2.843
   10       -0.042  -0.098   0.444   0.304
   11       -0.042  -0.098   0.444   0.304
   12       -0.042  -0.098   0.444   0.304
--------------------------------------------------
tot         -0.129  -0.442  27.065  26.494
 
    FORLOC:  cpu time      0.0017: real time      0.0018
    FORNL :  cpu time      0.7750: real time      0.7794
    STRESS:  cpu time      4.7164: real time      4.7515
    FORCOR:  cpu time      0.0224: real time      0.0226
    OFIELD:  cpu time      0.0001: real time      0.0001

  FORCE on cell =-STRESS in cart. coord.  units (eV):
  Direction    XX          YY          ZZ          XY          YZ          ZX
  --------------------------------------------------------------------------------------
  Alpha Z  1025.24174  1025.24174  1025.24174
  Ewald   -5906.97395 -5906.97395 -5907.52208    -0.00000     0.00000    -0.00000
  Hartree  1944.92900  1944.92900  1944.59597    -0.00000    -0.00000    -0.00000
  E(xc)    -942.80960  -942.80960  -942.80873     0.00000     0.00000    -0.00000
  Local     971.33281   971.33281   972.13579     0.00000     0.00000     0.00000
  n-local  -224.72571  -240.03243  -232.28867    13.62502    -0.16731     0.20884
  augment  1440.73210  1440.73210  1440.72268    -0.00000     0.00000     0.00000
  Kinetic  1692.96374  1687.53483  1690.30663     1.69688     0.23937     1.29229
  Fock        0.00000     0.00000     0.00000     0.00000     0.00000     0.00000
  -------------------------------------------------------------------------------------
  Total      -9.67767    -9.67767    -9.61666     0.00000    -0.00000     0.00000
  in kB     -93.40569   -93.40569   -92.81683     0.00000    -0.00000     0.00000
  external pressure =      -93.21 kB  Pullay stress =        0.00 kB


 VOLUME and BASIS-vectors are now :
 -----------------------------------------------------------------------------
  energy-cutoff  :      520.00
  volume of cell :      166.00
      direct lattice vectors                 reciprocal lattice vectors
     3.810005715  0.000000000  0.000000000     0.262466798  0.000000000  0.000000000
     0.000000000  3.810005715  0.000000000     0.000000000  0.262466798  0.000000000
     0.000000000  0.000000000 11.435544117     0.000000000  0.000000000  0.087446648

  length of vectors
     3.810005715  3.810005715 11.435544117     0.262466798  0.262466798  0.087446648


 FORCES acting on ions:
    Electron-Ion                     Ewald-Force                    Non-Local-Force
 -----------------------------------------------------------------------------------------------
   -.706E-13 0.132E-11 0.272E+01   0.854E-14 -.162E-15 -.273E+01   -.480E-20 0.843E-21 -.797E-02
   -.711E-13 0.115E-11 0.916E-13   -.457E-16 -.141E-13 0.227E-12   0.350E-23 -.757E-23 0.366E-23
   -.709E-13 0.264E-11 -.272E+01   -.507E-14 -.859E-14 0.273E+01   -.231E-20 0.507E-21 0.797E-02
   0.112E-11 0.796E-11 0.537E-11   -.142E-13 0.894E-15 0.114E-12   0.323E-23 0.112E-23 -.272E-24
   0.114E-11 0.701E-11 0.307E+01   -.182E-13 -.305E-13 -.306E+01   -.137E-20 -.184E-20 -.160E-01
   0.114E-11 0.658E-11 -.307E+01   -.205E-13 -.280E-13 0.306E+01   -.400E-21 0.304E-20 0.160E-01
   0.114E-11 -.557E-13 0.272E+01   0.180E-13 0.131E-13 -.273E+01   0.295E-21 -.117E-20 -.797E-02
   0.114E-11 -.697E-13 0.306E-11   -.102E-13 0.139E-13 0.000E+00   -.490E-23 -.762E-23 0.585E-23
   0.116E-11 -.821E-13 -.272E+01   -.205E-13 -.952E-14 0.273E+01   0.106E-20 -.415E-20 0.797E-02
   -.418E-13 -.445E-13 0.163E-12   -.201E-15 0.194E-13 0.000E+00   0.152E-23 0.181E-23 0.244E-23
   -.424E-13 -.399E-13 0.185E+01   -.166E-13 -.474E-15 -.185E+01   0.303E-21 -.226E-20 -.576E-02
   -.423E-13 -.495E-13 -.185E+01   0.410E-13 0.174E-13 0.185E+01   0.373E-21 -.120E-20 0.576E-02
 -----------------------------------------------------------------------------------------------
   0.654E-11 0.265E-10 0.534E-11   -.380E-13 -.266E-13 0.621E-12   -.684E-20 -.625E-20 0.000E+00
 
 
 POSITION                                       TOTAL-FORCE (eV/Angst)
 -----------------------------------------------------------------------------------
      0.00000      1.90500      1.90715         0.000000     -0.000000     -0.009307
      0.00000      1.90500      5.71777         0.000000     -0.000000      0.000000
      0.00000      1.90500      9.52840         0.000000     -0.000000      0.009307
      1.90500      1.90500      0.00000        -0.000000      0.000000      0.000000
      1.90500      1.90500      3.81349         0.000000     -0.000000     -0.007180
      1.90500      1.90500      7.62205        -0.000000     -0.000000      0.007180
      1.90500      0.00000      1.90715        -0.000000      0.000000     -0.009307
      1.90500      0.00000      5.71777        -0.000000     -0.000000      0.000000
      1.90500      0.00000      9.52840         0.000000     -0.000000      0.009307
      0.00000      0.00000      0.00000         0.000000     -0.000000      0.000000
      0.00000      0.00000      3.81271         0.000000      0.000000     -0.005486
      0.00000      0.00000      7.62284         0.000000      0.000000      0.005486
 -----------------------------------------------------------------------------------
    total drift:                                0.000000      0.000000      0.000000


--------------------------------------------------------------------------------------------------------



  FREE ENERGIE OF THE ION-ELECTRON SYSTEM (eV)
  ---------------------------------------------------
  free  energy   TOTEN  =       -93.23719507 eV

  energy  without entropy=      -93.22699911  energy(sigma->0) =      -93.23379642
 


--------------------------------------------------------------------------------------------------------


    POTLOK:  cpu time      0.0373: real time      0.0376


--------------------------------------------------------------------------------------------------------




--------------------------------------------------------------------------------------------------------


  
 reached required accuracy - stopping structural energy minimisation
     LOOP+:  cpu time    185.6561: real time    187.5918
    4ORBIT:  cpu time      0.0000: real time      0.0000



 total charge

# of ion       s       p       d       tot
------------------------------------------
    1        0.331   6.292   5.985  12.607
    2        0.331   6.292   5.985  12.608
    3        0.331   6.292   5.985  12.607
    4        0.331   6.292   5.984  12.607
    5        0.331   6.292   5.985  12.608
    6        0.331   6.292   5.985  12.608
    7        0.331   6.292   5.985  12.607
    8        0.331   6.292   5.985  12.608
    9        0.331   6.292   5.985  12.607
   10        0.730   0.629   8.014   9.374
   11        0.730   0.630   8.015   9.375
   12        0.730   0.630   8.015   9.375
--------------------------------------------------
tot          5.168  58.518  77.907 141.593



 magnetization (x)

# of ion       s       p       d       tot
------------------------------------------
    1       -0.000  -0.017   2.859   2.843
    2       -0.000  -0.017   2.858   2.841
    3       -0.000  -0.017   2.859   2.843
    4       -0.000  -0.017   2.862   2.845
    5       -0.000  -0.017   2.859   2.842
    6       -0.000  -0.017   2.859   2.842
    7       -0.000  -0.017   2.859   2.843
    8       -0.000  -0.017   2.858   2.841
    9       -0.000  -0.017   2.859   2.843
   10       -0.042  -0.098   0.444   0.304
   11       -0.042  -0.098   0.444   0.304
   12       -0.042  -0.098   0.444   0.304
--------------------------------------------------
tot         -0.129  -0.442  27.065  26.494
 

 total amount of memory used by VASP MPI-rank0   301408. kBytes
=======================================================================

   base      :      30000. kBytes
   nonl-proj :     110020. kBytes
   fftplans  :        955. kBytes
   grid      :       7297. kBytes
   one-center:        373. kBytes
   wavefun   :     152763. kBytes
 
  
  
 General timing and accounting informations for this job:
 ========================================================
  
                  Total CPU time used (sec):      205.371
                            User time (sec):      198.681
                          System time (sec):        6.690
                         Elapsed time (sec):      213.811
  
                   Maximum memory used (kb):     1144904.
                   Average memory used (kb):          N/A
  
                          Minor page faults:       171418
                          Major page faults:          184
                 Voluntary context switches:         8437
