 vasp.6.4.3 19Mar24 (build Mar 26 2024 14:05:37) complex                        
  
 executed on             LinuxIFC date 2024.12.16  07:03:03
 running  128 mpi-ranks, on    1 nodes
 distrk:  each k-point on   32 cores,    4 groups
 distr:  one band on NCORE=   1 cores,   32 groups


--------------------------------------------------------------------------------------------------------


 INCAR:
   ALGO = All
   EDIFF = 1e-06
   EDIFFG = -0.01
   ENCUT = 520
   GGA = Pe
   IBRION = 2
   ISIF = 4
   ISMEAR = 1
   ISPIN = 2
   KPAR = 4
   LCHARG = True
   LORBIT = 11
   LREAL = False
   LWAVE = False
   MAGMOM = 1*2.85 1*2.849 1*2.85 3*2.848 1*2.85 1*2.849 1*2.85 1*0.29 2*0.291
   NELM = 200
   NSW = 100
   PREC = Accurate
   SIGMA = 0.2

 POTCAR:    PAW_PBE Fe_pv 02Aug2007               
 POTCAR:    PAW_PBE Pt 04Feb2005                  
 -----------------------------------------------------------------------------
|                                                                             |
|           W    W    AA    RRRRR   N    N  II  N    N   GGGG   !!!           |
|           W    W   A  A   R    R  NN   N  II  NN   N  G    G  !!!           |
|           W    W  A    A  R    R  N N  N  II  N N  N  G       !!!           |
|           W WW W  AAAAAA  RRRRR   N  N N  II  N  N N  G  GGG   !            |
|           WW  WW  A    A  R   R   N   NN  II  N   NN  G    G                |
|           W    W  A    A  R    R  N    N  II  N    N   GGGG   !!!           |
|                                                                             |
|     For optimal performance we recommend to set                             |
|       NCORE = 2 up to number-of-cores-per-socket                            |
|     NCORE specifies how many cores store one orbital (NPAR=cpu/NCORE).      |
|     This setting can greatly improve the performance of VASP for DFT.       |
|     The default, NCORE=1 might be grossly inefficient on modern             |
|     multi-core architectures or massively parallel machines. Do your        |
|     own testing! More info at https://www.vasp.at/wiki/index.php/NCORE      |
|     Unfortunately you need to use the default for GW and RPA                |
|     calculations (for HF NCORE is supported but not extensively tested      |
|     yet).                                                                   |
|                                                                             |
 -----------------------------------------------------------------------------

 POTCAR:    PAW_PBE Fe_pv 02Aug2007               
   SHA256 =  5d22e414b1f82158bf2c7ecb8b97b28fd0923e48cadc1c3bf74d524558f5dd32 Fe_pv/POTCAR          
   COPYR  = (c) Copyright 02Aug2007 Georg Kresse                                                    
   COPYR  = This file is part of the software VASP. Any use, copying, and all other rights are regul
   COPYR  = If you do not have a valid VASP license, you may not use, copy or distribute this file. 
   VRHFIN =Fe:  3pd7s1                                                                              
   LEXCH  = PE                                                                                      
   EATOM  =  2457.4239 eV,  180.6156 Ry                                                             
                                                                                                    
   TITEL  = PAW_PBE Fe_pv 02Aug2007                                                                 
   LULTRA =        F    use ultrasoft PP ?                                                          
   IUNSCR =        1    unscreen: 0-lin 1-nonlin 2-no                                               
   RPACOR =    1.750    partial core radius                                                         
   POMASS =   55.847; ZVAL   =   14.000    mass and valenz                                          
   RCORE  =    2.200    outmost cutoff radius                                                       
   RWIGS  =    2.200; RWIGS  =    1.164    wigner-seitz radius (au A)                               
   ENMAX  =  293.238; ENMIN  =  219.928 eV                                                          
   ICORE  =        3    local potential                                                             
   LCOR   =        T    correct aug charges                                                         
   LPAW   =        T    paw PP                                                                      
   EAUG   =  578.342                                                                                
   DEXC   =    0.000                                                                                
   RMAX   =    2.249    core radius for proj-oper                                                   
   RAUG   =    1.300    factor for augmentation sphere                                              
   RDEP   =    2.296    radius for radial grids                                                     
   RDEPT  =    1.766    core radius for aug-charge                                                  
                                                                                                    
   Atomic configuration                                                                             
    8 entries                                                                                       
     n  l   j            E        occ.                                                              
     1  0  0.50     -6993.8440   2.0000                                                             
     2  0  0.50      -814.6047   2.0000                                                             
     2  1  1.50      -693.3689   6.0000                                                             
     3  0  0.50       -89.4732   2.0000                                                             
     3  1  1.50       -55.6373   6.0000                                                             
     3  2  2.50        -3.8151   7.0000                                                             
     4  0  0.50        -4.2551   1.0000                                                             
     4  3  2.50        -1.3606   0.0000                                                             
   Description                                                                                      
     l       E           TYP  RCUT    TYP  RCUT                                                     
     1    -55.6372668     23  2.000                                                                 
     1     -5.4423304     23  2.000                                                                 
     2     -3.8151096     23  2.200                                                                 
     2     -5.1756922     23  2.200                                                                 
     0     -4.2550951     23  2.200                                                                 
     0     27.2116520     23  2.200                                                                 
     3     -1.3605826     23  2.200                                                                 
  local pseudopotential read in
  partial core-charges read in
  partial kinetic energy density read in
  atomic valenz-charges read in
  non local Contribution for L=           1  read in
    real space projection operators read in
  non local Contribution for L=           1  read in
    real space projection operators read in
  non local Contribution for L=           2  read in
    real space projection operators read in
  non local Contribution for L=           2  read in
    real space projection operators read in
  non local Contribution for L=           0  read in
    real space projection operators read in
  non local Contribution for L=           0  read in
    real space projection operators read in
    PAW grid and wavefunctions read in
 
   number of l-projection  operators is LMAX  =           6
   number of lm-projection operators is LMMAX =          18
 
 POTCAR:    PAW_PBE Pt 04Feb2005                  
   SHA256 =  3ed90460adef76debcff1cfb73ee1349b515b1a3db03439735b44de3a8db7dc8 Pt/POTCAR             
   COPYR  = (c) Copyright 04Feb2005 Georg Kresse                                                    
   COPYR  = This file is part of the software VASP. Any use, copying, and all other rights are regul
   COPYR  = If you do not have a valid VASP license, you may not use, copy or distribute this file. 
   VRHFIN =Pt: s1d9                                                                                 
   LEXCH  = PE                                                                                      
   EATOM  =   729.1176 eV,   53.5886 Ry                                                             
                                                                                                    
   TITEL  = PAW_PBE Pt 04Feb2005                                                                    
   LULTRA =        F    use ultrasoft PP ?                                                          
   IUNSCR =        1    unscreen: 0-lin 1-nonlin 2-no                                               
   RPACOR =    2.330    partial core radius                                                         
   POMASS =  195.080; ZVAL   =   10.000    mass and valenz                                          
   RCORE  =    2.600    outmost cutoff radius                                                       
   RWIGS  =    2.750; RWIGS  =    1.455    wigner-seitz radius (au A)                               
   ENMAX  =  230.283; ENMIN  =  172.712 eV                                                          
   ICORE  =        3    local potential                                                             
   LCOR   =        T    correct aug charges                                                         
   LPAW   =        T    paw PP                                                                      
   EAUG   =  358.966                                                                                
   DEXC   =    0.000                                                                                
   RMAX   =    2.658    core radius for proj-oper                                                   
   RAUG   =    1.300    factor for augmentation sphere                                              
   RDEP   =    2.761    radius for radial grids                                                     
   RDEPT  =    2.203    core radius for aug-charge                                                  
                                                                                                    
   Atomic configuration                                                                             
   16 entries                                                                                       
     n  l   j            E        occ.                                                              
     1  0  0.50    -78401.1885   2.0000                                                             
     2  0  0.50    -13770.7750   2.0000                                                             
     2  1  1.50    -11931.0468   6.0000                                                             
     3  0  0.50     -3234.7234   2.0000                                                             
     3  1  1.50     -2699.2216   6.0000                                                             
     3  2  2.50     -2119.5714  10.0000                                                             
     4  0  0.50      -695.1528   2.0000                                                             
     4  1  1.50      -519.6034   6.0000                                                             
     4  2  2.50      -306.6786  10.0000                                                             
     4  3  3.50       -70.1041  14.0000                                                             
     5  0  0.50      -101.7747   2.0000                                                             
     5  1  1.50       -55.9873   6.0000                                                             
     5  2  2.50        -6.1423   9.0000                                                             
     6  0  0.50        -5.6573   1.0000                                                             
     6  1  1.50        -6.8029   0.0000                                                             
     5  3  2.50        -1.3606   0.0000                                                             
   Description                                                                                      
     l       E           TYP  RCUT    TYP  RCUT                                                     
     2     -6.1423404     23  2.500                                                                 
     2     -7.5029230     23  2.500                                                                 
     0     -5.6573207     23  2.500                                                                 
     0      0.7416693     23  2.500                                                                 
     1     -2.7211652     23  2.600                                                                 
     1     20.4087390     23  2.600                                                                 
     3     -1.3605826     23  2.500                                                                 
  local pseudopotential read in
  partial core-charges read in
  partial kinetic energy density read in
  atomic valenz-charges read in
  non local Contribution for L=           2  read in
    real space projection operators read in
  non local Contribution for L=           2  read in
    real space projection operators read in
  non local Contribution for L=           0  read in
    real space projection operators read in
  non local Contribution for L=           0  read in
    real space projection operators read in
  non local Contribution for L=           1  read in
    real space projection operators read in
  non local Contribution for L=           1  read in
    real space projection operators read in
    PAW grid and wavefunctions read in
 
   number of l-projection  operators is LMAX  =           6
   number of lm-projection operators is LMMAX =          18
 
  PAW_PBE Fe_pv 02Aug2007               :
 energy of atom  1       EATOM=-2457.4239
 kinetic energy error for atom=    0.0062 (will be added to EATOM!!)
  PAW_PBE Pt 04Feb2005                  :
 energy of atom  2       EATOM= -729.1176
 kinetic energy error for atom=    0.0032 (will be added to EATOM!!)
 
 
 POSCAR: Fe9 Pt3
  positions in direct lattice
  No initial velocities read in


 exchange-correlation table for PE
   RHO(1)=    0.500       N(1)  =     2000
   RHO(2)=  100.500       N(2)  =     4000
 


--------------------------------------------------------------------------------------------------------


 ion  position               nearest neighbor table
   1  0.000  0.500  0.167-   7 2.69   7 2.69   7 2.69   7 2.69  11 2.69  11 2.69   5 2.69   5 2.69
                             4 2.70  10 2.70  10 2.70   4 2.70
   2  0.000  0.500  0.500-   5 2.69   6 2.69   5 2.69   6 2.69  11 2.69  12 2.69  11 2.69  12 2.69
                             8 2.69   8 2.69   8 2.69   8 2.69
   3  0.000  0.500  0.833-   9 2.69   9 2.69   9 2.69   9 2.69  12 2.69  12 2.69   6 2.69   6 2.69
                             4 2.70  10 2.70  10 2.70   4 2.70
   4  0.500  0.500  0.000-  10 2.69  10 2.69  10 2.69  10 2.69   1 2.70   7 2.70   9 2.70   3 2.70
                             1 2.70   3 2.70   7 2.70   9 2.70
   5  0.500  0.500  0.333-   2 2.69   8 2.69   8 2.69   2 2.69  11 2.69  11 2.69  11 2.69  11 2.69
                             1 2.69   7 2.69   1 2.69   7 2.69
   6  0.500  0.500  0.667-   2 2.69   8 2.69   8 2.69   2 2.69  12 2.69  12 2.69  12 2.69  12 2.69
                             9 2.69   3 2.69   9 2.69   3 2.69
   7  0.500  0.000  0.167-   1 2.69   1 2.69   1 2.69   1 2.69  11 2.69  11 2.69   5 2.69   5 2.69
                            10 2.70  10 2.70   4 2.70   4 2.70
   8  0.500  0.000  0.500-   5 2.69   6 2.69   5 2.69   6 2.69  11 2.69  12 2.69  11 2.69  12 2.69
                             2 2.69   2 2.69   2 2.69   2 2.69
   9  0.500  0.000  0.833-   3 2.69   3 2.69   3 2.69   3 2.69  12 2.69  12 2.69   6 2.69   6 2.69
                            10 2.70  10 2.70   4 2.70   4 2.70
  10  0.000  0.000  0.000-   4 2.69   4 2.69   4 2.69   4 2.69   9 2.70   1 2.70   3 2.70   3 2.70
                             1 2.70   7 2.70   9 2.70   7 2.70
  11  0.000  0.000  0.333-   2 2.69   8 2.69   2 2.69   8 2.69   5 2.69   5 2.69   5 2.69   5 2.69
                             1 2.69   7 2.69   7 2.69   1 2.69
  12  0.000  0.000  0.667-   2 2.69   8 2.69   2 2.69   8 2.69   6 2.69   6 2.69   6 2.69   6 2.69
                             3 2.69   3 2.69   9 2.69   9 2.69
 
  LATTYP: Found a simple tetragonal cell.
 ALAT       =     3.8101822996
 C/A-ratio  =     3.0010333560
  
  Lattice vectors:
  
 A1 = (   3.8101822996,   0.0000000000,   0.0000000000)
 A2 = (   0.0000000000,   3.8101822996,   0.0000000000)
 A3 = (   0.0000000000,   0.0000000000,  11.4344841735)


Analysis of symmetry for initial positions (statically):
=====================================================================
 Subroutine PRICEL returns:
 Original cell was already a primitive cell.
 

 Routine SETGRP: Setting up the symmetry group for a 
 simple tetragonal supercell.


 Subroutine GETGRP returns: Found 16 space group operations
 (whereof 16 operations were pure point group operations)
 out of a pool of 16 trial point group operations.


The static configuration has the point symmetry D_4h.


Analysis of symmetry for dynamics (positions and initial velocities):
=====================================================================
 Subroutine PRICEL returns:
 Original cell was already a primitive cell.
 

 Routine SETGRP: Setting up the symmetry group for a 
 simple tetragonal supercell.


 Subroutine GETGRP returns: Found 16 space group operations
 (whereof 16 operations were pure point group operations)
 out of a pool of 16 trial point group operations.


The dynamic configuration has the point symmetry D_4h.


Analysis of structural, dynamic, and magnetic symmetry:
=====================================================================
 Subroutine PRICEL returns:
 Original cell was already a primitive cell.
 

 Routine SETGRP: Setting up the symmetry group for a 
 simple tetragonal supercell.


 Subroutine GETGRP returns: Found 16 space group operations
 (whereof 16 operations were pure point group operations)
 out of a pool of 16 trial point group operations.


The overall configuration has the point symmetry D_4h.


 Subroutine INISYM returns: Found 16 space group operations
 (whereof 16 operations are pure point group operations),
 and found     1 'primitive' translations


----------------------------------------------------------------------------------------

                                     Primitive cell                                     

  volume of cell :     166.0000

  direct lattice vectors                    reciprocal lattice vectors
     3.810182300  0.000000000  0.000000000     0.262454634  0.000000000  0.000000000
     0.000000000  3.810182300  0.000000000     0.000000000  0.262454634  0.000000000
     0.000000000  0.000000000 11.434484174     0.000000000  0.000000000  0.087454754

  length of vectors
     3.810182300  3.810182300 11.434484174     0.262454634  0.262454634  0.087454754

  position of ions in fractional coordinates (direct lattice)
     0.000000000  0.500000000  0.166760483
     0.000000000  0.500000000  0.500000000
     0.000000000  0.500000000  0.833239517
     0.500000000  0.500000000  0.000000000
     0.500000000  0.500000000  0.333449118
     0.500000000  0.500000000  0.666550882
     0.500000000  0.000000000  0.166760483
     0.500000000  0.000000000  0.500000000
     0.500000000  0.000000000  0.833239517
     0.000000000  0.000000000  0.000000000
     0.000000000  0.000000000  0.333395313
     0.000000000  0.000000000  0.666604687

  ion indices of the primitive-cell ions
   primitive index   ion index
                 1           1
                 2           2
                 3           3
                 4           4
                 5           5
                 6           6
                 7           7
                 8           8
                 9           9
                10          10
                11          11
                12          12

----------------------------------------------------------------------------------------

 
 
 KPOINTS: pymatgen with grid density = 8800 / numb

Automatic generation of k-mesh.
 Grid dimensions read from file:
 generate k-points for:   13   13    4

 Generating k-lattice:

  Cartesian coordinates                     Fractional coordinates (reciprocal lattice)
     0.020188818  0.000000000  0.000000000     0.076923077  0.000000000  0.000000000
     0.000000000  0.020188818  0.000000000     0.000000000  0.076923077  0.000000000
     0.000000000  0.000000000  0.021863688     0.000000000  0.000000000  0.250000000

  Length of vectors
     0.020188818  0.020188818  0.021863688

  Shift w.r.t. Gamma in fractional coordinates (k-lattice)
     0.000000000  0.000000000  0.000000000

 
 Subroutine IBZKPT returns following result:
 ===========================================
 
 Found     84 irreducible k-points:
 
 Following reciprocal coordinates:
            Coordinates               Weight
  0.000000  0.000000  0.000000      1.000000
  0.076923  0.000000  0.000000      4.000000
  0.153846  0.000000  0.000000      4.000000
  0.230769  0.000000  0.000000      4.000000
  0.307692  0.000000  0.000000      4.000000
  0.384615  0.000000  0.000000      4.000000
  0.461538  0.000000  0.000000      4.000000
  0.076923  0.076923  0.000000      4.000000
  0.153846  0.076923  0.000000      8.000000
  0.230769  0.076923  0.000000      8.000000
  0.307692  0.076923  0.000000      8.000000
  0.384615  0.076923  0.000000      8.000000
  0.461538  0.076923  0.000000      8.000000
  0.153846  0.153846  0.000000      4.000000
  0.230769  0.153846  0.000000      8.000000
  0.307692  0.153846  0.000000      8.000000
  0.384615  0.153846  0.000000      8.000000
  0.461538  0.153846  0.000000      8.000000
  0.230769  0.230769  0.000000      4.000000
  0.307692  0.230769  0.000000      8.000000
  0.384615  0.230769  0.000000      8.000000
  0.461538  0.230769  0.000000      8.000000
  0.307692  0.307692  0.000000      4.000000
  0.384615  0.307692  0.000000      8.000000
  0.461538  0.307692  0.000000      8.000000
  0.384615  0.384615  0.000000      4.000000
  0.461538  0.384615  0.000000      8.000000
  0.461538  0.461538  0.000000      4.000000
  0.000000  0.000000  0.250000      2.000000
  0.076923  0.000000  0.250000      8.000000
  0.153846  0.000000  0.250000      8.000000
  0.230769  0.000000  0.250000      8.000000
  0.307692  0.000000  0.250000      8.000000
  0.384615  0.000000  0.250000      8.000000
  0.461538  0.000000  0.250000      8.000000
  0.076923  0.076923  0.250000      8.000000
  0.153846  0.076923  0.250000     16.000000
  0.230769  0.076923  0.250000     16.000000
  0.307692  0.076923  0.250000     16.000000
  0.384615  0.076923  0.250000     16.000000
  0.461538  0.076923  0.250000     16.000000
  0.153846  0.153846  0.250000      8.000000
  0.230769  0.153846  0.250000     16.000000
  0.307692  0.153846  0.250000     16.000000
  0.384615  0.153846  0.250000     16.000000
  0.461538  0.153846  0.250000     16.000000
  0.230769  0.230769  0.250000      8.000000
  0.307692  0.230769  0.250000     16.000000
  0.384615  0.230769  0.250000     16.000000
  0.461538  0.230769  0.250000     16.000000
  0.307692  0.307692  0.250000      8.000000
  0.384615  0.307692  0.250000     16.000000
  0.461538  0.307692  0.250000     16.000000
  0.384615  0.384615  0.250000      8.000000
  0.461538  0.384615  0.250000     16.000000
  0.461538  0.461538  0.250000      8.000000
  0.000000  0.000000  0.500000      1.000000
  0.076923  0.000000  0.500000      4.000000
  0.153846  0.000000  0.500000      4.000000
  0.230769  0.000000  0.500000      4.000000
  0.307692  0.000000  0.500000      4.000000
  0.384615  0.000000  0.500000      4.000000
  0.461538  0.000000  0.500000      4.000000
  0.076923  0.076923  0.500000      4.000000
  0.153846  0.076923  0.500000      8.000000
  0.230769  0.076923  0.500000      8.000000
  0.307692  0.076923  0.500000      8.000000
  0.384615  0.076923  0.500000      8.000000
  0.461538  0.076923  0.500000      8.000000
  0.153846  0.153846  0.500000      4.000000
  0.230769  0.153846  0.500000      8.000000
  0.307692  0.153846  0.500000      8.000000
  0.384615  0.153846  0.500000      8.000000
  0.461538  0.153846  0.500000      8.000000
  0.230769  0.230769  0.500000      4.000000
  0.307692  0.230769  0.500000      8.000000
  0.384615  0.230769  0.500000      8.000000
  0.461538  0.230769  0.500000      8.000000
  0.307692  0.307692  0.500000      4.000000
  0.384615  0.307692  0.500000      8.000000
  0.461538  0.307692  0.500000      8.000000
  0.384615  0.384615  0.500000      4.000000
  0.461538  0.384615  0.500000      8.000000
  0.461538  0.461538  0.500000      4.000000
 
 Following cartesian coordinates:
            Coordinates               Weight
  0.000000  0.000000  0.000000      1.000000
  0.020189  0.000000  0.000000      4.000000
  0.040378  0.000000  0.000000      4.000000
  0.060566  0.000000  0.000000      4.000000
  0.080755  0.000000  0.000000      4.000000
  0.100944  0.000000  0.000000      4.000000
  0.121133  0.000000  0.000000      4.000000
  0.020189  0.020189  0.000000      4.000000
  0.040378  0.020189  0.000000      8.000000
  0.060566  0.020189  0.000000      8.000000
  0.080755  0.020189  0.000000      8.000000
  0.100944  0.020189  0.000000      8.000000
  0.121133  0.020189  0.000000      8.000000
  0.040378  0.040378  0.000000      4.000000
  0.060566  0.040378  0.000000      8.000000
  0.080755  0.040378  0.000000      8.000000
  0.100944  0.040378  0.000000      8.000000
  0.121133  0.040378  0.000000      8.000000
  0.060566  0.060566  0.000000      4.000000
  0.080755  0.060566  0.000000      8.000000
  0.100944  0.060566  0.000000      8.000000
  0.121133  0.060566  0.000000      8.000000
  0.080755  0.080755  0.000000      4.000000
  0.100944  0.080755  0.000000      8.000000
  0.121133  0.080755  0.000000      8.000000
  0.100944  0.100944  0.000000      4.000000
  0.121133  0.100944  0.000000      8.000000
  0.121133  0.121133  0.000000      4.000000
  0.000000  0.000000  0.021864      2.000000
  0.020189  0.000000  0.021864      8.000000
  0.040378  0.000000  0.021864      8.000000
  0.060566  0.000000  0.021864      8.000000
  0.080755  0.000000  0.021864      8.000000
  0.100944  0.000000  0.021864      8.000000
  0.121133  0.000000  0.021864      8.000000
  0.020189  0.020189  0.021864      8.000000
  0.040378  0.020189  0.021864     16.000000
  0.060566  0.020189  0.021864     16.000000
  0.080755  0.020189  0.021864     16.000000
  0.100944  0.020189  0.021864     16.000000
  0.121133  0.020189  0.021864     16.000000
  0.040378  0.040378  0.021864      8.000000
  0.060566  0.040378  0.021864     16.000000
  0.080755  0.040378  0.021864     16.000000
  0.100944  0.040378  0.021864     16.000000
  0.121133  0.040378  0.021864     16.000000
  0.060566  0.060566  0.021864      8.000000
  0.080755  0.060566  0.021864     16.000000
  0.100944  0.060566  0.021864     16.000000
  0.121133  0.060566  0.021864     16.000000
  0.080755  0.080755  0.021864      8.000000
  0.100944  0.080755  0.021864     16.000000
  0.121133  0.080755  0.021864     16.000000
  0.100944  0.100944  0.021864      8.000000
  0.121133  0.100944  0.021864     16.000000
  0.121133  0.121133  0.021864      8.000000
  0.000000  0.000000  0.043727      1.000000
  0.020189  0.000000  0.043727      4.000000
  0.040378  0.000000  0.043727      4.000000
  0.060566  0.000000  0.043727      4.000000
  0.080755  0.000000  0.043727      4.000000
  0.100944  0.000000  0.043727      4.000000
  0.121133  0.000000  0.043727      4.000000
  0.020189  0.020189  0.043727      4.000000
  0.040378  0.020189  0.043727      8.000000
  0.060566  0.020189  0.043727      8.000000
  0.080755  0.020189  0.043727      8.000000
  0.100944  0.020189  0.043727      8.000000
  0.121133  0.020189  0.043727      8.000000
  0.040378  0.040378  0.043727      4.000000
  0.060566  0.040378  0.043727      8.000000
  0.080755  0.040378  0.043727      8.000000
  0.100944  0.040378  0.043727      8.000000
  0.121133  0.040378  0.043727      8.000000
  0.060566  0.060566  0.043727      4.000000
  0.080755  0.060566  0.043727      8.000000
  0.100944  0.060566  0.043727      8.000000
  0.121133  0.060566  0.043727      8.000000
  0.080755  0.080755  0.043727      4.000000
  0.100944  0.080755  0.043727      8.000000
  0.121133  0.080755  0.043727      8.000000
  0.100944  0.100944  0.043727      4.000000
  0.121133  0.100944  0.043727      8.000000
  0.121133  0.121133  0.043727      4.000000
 


--------------------------------------------------------------------------------------------------------




 Dimension of arrays:
   k-points           NKPTS =     84   k-points in BZ     NKDIM =     84   number of bands    NBANDS=    128
   number of dos      NEDOS =    301   number of ions     NIONS =     12
   non local maximal  LDIM  =      6   non local SUM 2l+1 LMDIM =     18
   total plane-waves  NPLWV =  70560
   max r-space proj   IRMAX =      1   max aug-charges    IRDMAX=  25941
   dimension x,y,z NGX =    28 NGY =   28 NGZ =   90
   dimension x,y,z NGXF=    56 NGYF=   56 NGZF=  180
   support grid    NGXF=    56 NGYF=   56 NGZF=  180
   ions per type =               9   3
   NGX,Y,Z   is equivalent  to a cutoff of  12.22, 12.22, 13.09 a.u.
   NGXF,Y,Z  is equivalent  to a cutoff of  24.43, 24.43, 26.17 a.u.

 SYSTEM =  unknown system                          
 POSCAR =  Fe9 Pt3                                 

 Startparameter for this run:
   NWRITE =      2    write-flag & timer
   PREC   = accura    normal or accurate (medium, high low for compatibility)
   ISTART =      0    job   : 0-new  1-cont  2-samecut
   ICHARG =      2    charge: 1-file 2-atom 10-const
   ISPIN  =      2    spin polarized calculation?
   LNONCOLLINEAR =      F non collinear calculations
   LSORBIT =      F    spin-orbit coupling
   INIWAV =      1    electr: 0-lowe 1-rand  2-diag
   LASPH  =      F    aspherical Exc in radial PAW
 Electronic Relaxation 1
   ENCUT  =  520.0 eV  38.22 Ry    6.18 a.u.   7.08  7.08 21.26*2*pi/ulx,y,z
   ENINI  =  520.0     initial cutoff
   ENAUG  =  578.3 eV  augmentation charge cutoff
   NELM   =    200;   NELMIN=  2; NELMDL=  0     # of ELM steps 
   EDIFF  = 0.1E-05   stopping-criterion for ELM
   LREAL  =      F    real-space projection
   NLSPLINE    = F    spline interpolate recip. space projectors
   LCOMPAT=      F    compatible to vasp.4.4
   GGA_COMPAT  = T    GGA compatible to vasp.4.4-vasp.4.6
   LMAXPAW     = -100 max onsite density
   LMAXMIX     =    2 max onsite mixed and CHGCAR
   VOSKOWN=      0    Vosko Wilk Nusair interpolation
   ROPT   =    0.00000   0.00000
 Ionic relaxation
   EDIFFG = -.1E-01   stopping-criterion for IOM
   NSW    =    100    number of steps for IOM
   NBLOCK =      1;   KBLOCK =    100    inner block; outer block 
   IBRION =      2    ionic relax: 0-MD 1-quasi-New 2-CG
   NFREE  =      1    steps in history (QN), initial steepest desc. (CG)
   ISIF   =      4    stress and relaxation
   IWAVPR =     11    prediction:  0-non 1-charg 2-wave 3-comb
   ISYM   =      2    0-nonsym 1-usesym 2-fastsym
   LCORR  =      T    Harris-Foulkes like correction to forces

   POTIM  = 0.5000    time-step for ionic-motion
   TEIN   =    0.0    initial temperature
   TEBEG  =    0.0;   TEEND  =   0.0 temperature during run
   SMASS  =  -3.00    Nose mass-parameter (am)
   estimated Nose-frequenzy (Omega)   =  0.10E-29 period in steps = 0.13E+47 mass=  -0.332E-27a.u.
   SCALEE = 1.0000    scale energy and forces
   NPACO  =    256;   APACO  = 10.0  distance and # of slots for P.C.
   PSTRESS=    0.0 pullay stress

  Mass of Ions in am
   POMASS =  55.85195.08
  Ionic Valenz
   ZVAL   =  14.00 10.00
  Atomic Wigner-Seitz radii
   RWIGS  =  -1.00 -1.00
  virtual crystal weights 
   VCA    =   1.00  1.00
   NELECT =     156.0000    total number of electrons
   NUPDOWN=      -1.0000    fix difference up-down

 DOS related values:
   EMIN   =  10.00;   EMAX   =-10.00  energy-range for DOS
   EFERMI =   0.00;   METHOD = LEGACY      
   ISMEAR =     1;   SIGMA  =   0.20  broadening in eV -4-tet -1-fermi 0-gaus

 Electronic relaxation 2 (details)
   IALGO  =     58    algorithm
   LDIAG  =      T    sub-space diagonalisation (order eigenvalues)
   LSUBROT=      F    optimize rotation matrix (better conditioning)
   TURBO    =      0    0=normal 1=particle mesh
   IRESTART =      0    0=no restart 2=restart with 2 vectors
   NREBOOT  =      0    no. of reboots
   NMIN     =      0    reboot dimension
   EREF     =   0.00    reference energy to select bands
   IMIX   =      4    mixing-type and parameters
     AMIX     =   0.40;   BMIX     =  1.00
     AMIX_MAG =   1.60;   BMIX_MAG =  1.00
     AMIN     =   0.10
     WC   =   100.;   INIMIX=   1;  MIXPRE=   1;  MAXMIX= -45

 Intra band minimization:
   WEIMIN = 0.0010     energy-eigenvalue tresh-hold
   EBREAK =  0.20E-08  absolut break condition
   DEPER  =   0.30     relativ break condition  

   TIME   =   0.40     timestep for ELM

  volume/ion in A,a.u.               =      13.83        93.35
  Fermi-wavevector in a.u.,A,eV,Ry     =   1.603542  3.030255 34.985298  2.571347
  Thomas-Fermi vector in A             =   2.700188
 
 Write flags
   LWAVE        =      F    write WAVECAR
   LDOWNSAMPLE  =      F    k-point downsampling of WAVECAR
   LCHARG       =      T    write CHGCAR
   LVTOT        =      F    write LOCPOT, total local potential
   LVHAR        =      F    write LOCPOT, Hartree potential only
   WRT_POTENTIAL= false  ! write potential to hdf5 file
   LELF         =      F    write electronic localiz. function (ELF)
   LORBIT       =     11    0 simple, 1 ext, 2 COOP (PROOUT), +10 PAW based schemes


 Dipole corrections
   LMONO      =      F    monopole corrections only (constant potential shift)
   LDIPOL     =      F    correct potential (dipole corrections)
   IDIPOL     =      0    1-x, 2-y, 3-z, 4-all directions 
   EPSILON    =  1.0000000 bulk dielectric constant
   LVACPOTAV  =      F  vacuum potentials using an averaging scheme for the charge density
   VACPOTFLAT =  0.1000000 required flatness to determine vacuum potential
 Exchange correlation treatment:
   GGA     = PE    functional components
   XC_C    = 1    coefficients multiplying the functional components
   LIBXC   =     F    Libxc                    
   VOSKOWN =     0    Vosko Wilk Nusair interpolation
   LHFCALC =     F    Hartree Fock is set to
   LHFONE  =     F    Hartree Fock one center treatment
   AEXX    =    0.0000 exact exchange contribution

 Parameters of functionals:
   PE:
     No parameter
 
 Van der Waals corrections
   IVDW    =     0    specifies the selected vdW correction

 Linear response parameters
   LEPSILON=     F    determine dielectric tensor
   LRPA    =     F    only Hartree local field effects (RPA)
   LNABLA  =     F    use nabla operator in PAW spheres
   LVEL    =     F    velocity operator in full k-point grid
   CSHIFT  =0.1000    complex shift for real part using Kramers Kronig
   OMEGAMAX=  -1.0    maximum frequency
   DEG_THRESHOLD= 0.2000000E-02 threshold for treating states as degnerate
   RTIME   =   -0.100 relaxation time in fs
  (WPLASMAI=    0.000 imaginary part of plasma frequency in eV, 0.658/RTIME)
   DFIELD  = 0.0000000 0.0000000 0.0000000 field for delta impulse in time
 
  Optional k-point grid parameters
   LKPOINTS_OPT  =     F    use optional k-point grid
   KPOINTS_OPT_MODE=     1    mode for optional k-point grid
 
 Orbital magnetization related:
   ORBITALMAG=     F  switch on orbital magnetization
   LCHIMAG   =     F  perturbation theory with respect to B field
   DQ        =  0.001000  dq finite difference perturbation B field
   LLRAUG    =     F  two centre corrections for induced B field
   LBONE     =     F  B-component reconstruction in AE one-centre
   LVGVCALC  =     T  calculate vGv susceptibility
   LVGVAPPL  =     F  apply vGv susceptibility instead of pGv for G=0

 Random number generation:
   RANDOM_GENERATOR = DEFAULT
   PCG_SEED         = not used


--------------------------------------------------------------------------------------------------------


 conjugate gradient relaxation of ions
 charge density and potential will be updated during run
 spin polarized calculation
 Conjugate gradient for all bands (Freysoldt, et al. PRB 79, 241103 (2009))
 preconditioned conjugated gradient                                        
 perform sub-space diagonalisation
    before iterative eigenvector-optimisation
 modified Broyden-mixing scheme, WC =      100.0
 initial mixing is a Kerker type mixing with AMIX =  0.4000 and BMIX =      1.0000
 Hartree-type preconditioning will be used
 using additional bands           50
 reciprocal scheme for non local part
 use partial core corrections
 no Harris-corrections to forces 
 use gradient corrections 
 use of overlap-Matrix (Vanderbilt PP)
 Methfessel and Paxton  Order N= 1 SIGMA  =   0.20


--------------------------------------------------------------------------------------------------------


  energy-cutoff  :      520.00
  volume of cell :      166.00
      direct lattice vectors                 reciprocal lattice vectors
     3.810182300  0.000000000  0.000000000     0.262454634  0.000000000  0.000000000
     0.000000000  3.810182300  0.000000000     0.000000000  0.262454634  0.000000000
     0.000000000  0.000000000 11.434484174     0.000000000  0.000000000  0.087454754

  length of vectors
     3.810182300  3.810182300 11.434484174     0.262454634  0.262454634  0.087454754


 
 k-points in units of 2pi/SCALE and weight: pymatgen with grid density = 8800 / numb
   0.00000000  0.00000000  0.00000000       0.001
   0.02018882  0.00000000  0.00000000       0.006
   0.04037764  0.00000000  0.00000000       0.006
   0.06056645  0.00000000  0.00000000       0.006
   0.08075527  0.00000000  0.00000000       0.006
   0.10094409  0.00000000  0.00000000       0.006
   0.12113291  0.00000000  0.00000000       0.006
   0.02018882  0.02018882  0.00000000       0.006
   0.04037764  0.02018882  0.00000000       0.012
   0.06056645  0.02018882  0.00000000       0.012
   0.08075527  0.02018882  0.00000000       0.012
   0.10094409  0.02018882  0.00000000       0.012
   0.12113291  0.02018882  0.00000000       0.012
   0.04037764  0.04037764  0.00000000       0.006
   0.06056645  0.04037764  0.00000000       0.012
   0.08075527  0.04037764  0.00000000       0.012
   0.10094409  0.04037764  0.00000000       0.012
   0.12113291  0.04037764  0.00000000       0.012
   0.06056645  0.06056645  0.00000000       0.006
   0.08075527  0.06056645  0.00000000       0.012
   0.10094409  0.06056645  0.00000000       0.012
   0.12113291  0.06056645  0.00000000       0.012
   0.08075527  0.08075527  0.00000000       0.006
   0.10094409  0.08075527  0.00000000       0.012
   0.12113291  0.08075527  0.00000000       0.012
   0.10094409  0.10094409  0.00000000       0.006
   0.12113291  0.10094409  0.00000000       0.012
   0.12113291  0.12113291  0.00000000       0.006
   0.00000000  0.00000000  0.02186369       0.003
   0.02018882  0.00000000  0.02186369       0.012
   0.04037764  0.00000000  0.02186369       0.012
   0.06056645  0.00000000  0.02186369       0.012
   0.08075527  0.00000000  0.02186369       0.012
   0.10094409  0.00000000  0.02186369       0.012
   0.12113291  0.00000000  0.02186369       0.012
   0.02018882  0.02018882  0.02186369       0.012
   0.04037764  0.02018882  0.02186369       0.024
   0.06056645  0.02018882  0.02186369       0.024
   0.08075527  0.02018882  0.02186369       0.024
   0.10094409  0.02018882  0.02186369       0.024
   0.12113291  0.02018882  0.02186369       0.024
   0.04037764  0.04037764  0.02186369       0.012
   0.06056645  0.04037764  0.02186369       0.024
   0.08075527  0.04037764  0.02186369       0.024
   0.10094409  0.04037764  0.02186369       0.024
   0.12113291  0.04037764  0.02186369       0.024
   0.06056645  0.06056645  0.02186369       0.012
   0.08075527  0.06056645  0.02186369       0.024
   0.10094409  0.06056645  0.02186369       0.024
   0.12113291  0.06056645  0.02186369       0.024
   0.08075527  0.08075527  0.02186369       0.012
   0.10094409  0.08075527  0.02186369       0.024
   0.12113291  0.08075527  0.02186369       0.024
   0.10094409  0.10094409  0.02186369       0.012
   0.12113291  0.10094409  0.02186369       0.024
   0.12113291  0.12113291  0.02186369       0.012
   0.00000000  0.00000000  0.04372738       0.001
   0.02018882  0.00000000  0.04372738       0.006
   0.04037764  0.00000000  0.04372738       0.006
   0.06056645  0.00000000  0.04372738       0.006
   0.08075527  0.00000000  0.04372738       0.006
   0.10094409  0.00000000  0.04372738       0.006
   0.12113291  0.00000000  0.04372738       0.006
   0.02018882  0.02018882  0.04372738       0.006
   0.04037764  0.02018882  0.04372738       0.012
   0.06056645  0.02018882  0.04372738       0.012
   0.08075527  0.02018882  0.04372738       0.012
   0.10094409  0.02018882  0.04372738       0.012
   0.12113291  0.02018882  0.04372738       0.012
   0.04037764  0.04037764  0.04372738       0.006
   0.06056645  0.04037764  0.04372738       0.012
   0.08075527  0.04037764  0.04372738       0.012
   0.10094409  0.04037764  0.04372738       0.012
   0.12113291  0.04037764  0.04372738       0.012
   0.06056645  0.06056645  0.04372738       0.006
   0.08075527  0.06056645  0.04372738       0.012
   0.10094409  0.06056645  0.04372738       0.012
   0.12113291  0.06056645  0.04372738       0.012
   0.08075527  0.08075527  0.04372738       0.006
   0.10094409  0.08075527  0.04372738       0.012
   0.12113291  0.08075527  0.04372738       0.012
   0.10094409  0.10094409  0.04372738       0.006
   0.12113291  0.10094409  0.04372738       0.012
   0.12113291  0.12113291  0.04372738       0.006
 
 k-points in reciprocal lattice and weights: pymatgen with grid density = 8800 / numb
   0.00000000  0.00000000  0.00000000       0.001
   0.07692308  0.00000000  0.00000000       0.006
   0.15384615  0.00000000  0.00000000       0.006
   0.23076923  0.00000000  0.00000000       0.006
   0.30769231  0.00000000  0.00000000       0.006
   0.38461538  0.00000000  0.00000000       0.006
   0.46153846  0.00000000  0.00000000       0.006
   0.07692308  0.07692308  0.00000000       0.006
   0.15384615  0.07692308  0.00000000       0.012
   0.23076923  0.07692308  0.00000000       0.012
   0.30769231  0.07692308  0.00000000       0.012
   0.38461538  0.07692308  0.00000000       0.012
   0.46153846  0.07692308  0.00000000       0.012
   0.15384615  0.15384615  0.00000000       0.006
   0.23076923  0.15384615  0.00000000       0.012
   0.30769231  0.15384615  0.00000000       0.012
   0.38461538  0.15384615  0.00000000       0.012
   0.46153846  0.15384615  0.00000000       0.012
   0.23076923  0.23076923  0.00000000       0.006
   0.30769231  0.23076923  0.00000000       0.012
   0.38461538  0.23076923  0.00000000       0.012
   0.46153846  0.23076923  0.00000000       0.012
   0.30769231  0.30769231  0.00000000       0.006
   0.38461538  0.30769231  0.00000000       0.012
   0.46153846  0.30769231  0.00000000       0.012
   0.38461538  0.38461538  0.00000000       0.006
   0.46153846  0.38461538  0.00000000       0.012
   0.46153846  0.46153846  0.00000000       0.006
   0.00000000  0.00000000  0.25000000       0.003
   0.07692308  0.00000000  0.25000000       0.012
   0.15384615  0.00000000  0.25000000       0.012
   0.23076923  0.00000000  0.25000000       0.012
   0.30769231  0.00000000  0.25000000       0.012
   0.38461538  0.00000000  0.25000000       0.012
   0.46153846  0.00000000  0.25000000       0.012
   0.07692308  0.07692308  0.25000000       0.012
   0.15384615  0.07692308  0.25000000       0.024
   0.23076923  0.07692308  0.25000000       0.024
   0.30769231  0.07692308  0.25000000       0.024
   0.38461538  0.07692308  0.25000000       0.024
   0.46153846  0.07692308  0.25000000       0.024
   0.15384615  0.15384615  0.25000000       0.012
   0.23076923  0.15384615  0.25000000       0.024
   0.30769231  0.15384615  0.25000000       0.024
   0.38461538  0.15384615  0.25000000       0.024
   0.46153846  0.15384615  0.25000000       0.024
   0.23076923  0.23076923  0.25000000       0.012
   0.30769231  0.23076923  0.25000000       0.024
   0.38461538  0.23076923  0.25000000       0.024
   0.46153846  0.23076923  0.25000000       0.024
   0.30769231  0.30769231  0.25000000       0.012
   0.38461538  0.30769231  0.25000000       0.024
   0.46153846  0.30769231  0.25000000       0.024
   0.38461538  0.38461538  0.25000000       0.012
   0.46153846  0.38461538  0.25000000       0.024
   0.46153846  0.46153846  0.25000000       0.012
   0.00000000  0.00000000  0.50000000       0.001
   0.07692308  0.00000000  0.50000000       0.006
   0.15384615  0.00000000  0.50000000       0.006
   0.23076923  0.00000000  0.50000000       0.006
   0.30769231  0.00000000  0.50000000       0.006
   0.38461538  0.00000000  0.50000000       0.006
   0.46153846  0.00000000  0.50000000       0.006
   0.07692308  0.07692308  0.50000000       0.006
   0.15384615  0.07692308  0.50000000       0.012
   0.23076923  0.07692308  0.50000000       0.012
   0.30769231  0.07692308  0.50000000       0.012
   0.38461538  0.07692308  0.50000000       0.012
   0.46153846  0.07692308  0.50000000       0.012
   0.15384615  0.15384615  0.50000000       0.006
   0.23076923  0.15384615  0.50000000       0.012
   0.30769231  0.15384615  0.50000000       0.012
   0.38461538  0.15384615  0.50000000       0.012
   0.46153846  0.15384615  0.50000000       0.012
   0.23076923  0.23076923  0.50000000       0.006
   0.30769231  0.23076923  0.50000000       0.012
   0.38461538  0.23076923  0.50000000       0.012
   0.46153846  0.23076923  0.50000000       0.012
   0.30769231  0.30769231  0.50000000       0.006
   0.38461538  0.30769231  0.50000000       0.012
   0.46153846  0.30769231  0.50000000       0.012
   0.38461538  0.38461538  0.50000000       0.006
   0.46153846  0.38461538  0.50000000       0.012
   0.46153846  0.46153846  0.50000000       0.006
 
 position of ions in fractional coordinates (direct lattice) 
   0.00000000  0.50000000  0.16676048
   0.00000000  0.50000000  0.50000000
   0.00000000  0.50000000  0.83323952
   0.50000000  0.50000000  0.00000000
   0.50000000  0.50000000  0.33344912
   0.50000000  0.50000000  0.66655088
   0.50000000  0.00000000  0.16676048
   0.50000000  0.00000000  0.50000000
   0.50000000  0.00000000  0.83323952
   0.00000000  0.00000000  0.00000000
   0.00000000  0.00000000  0.33339531
   0.00000000  0.00000000  0.66660469
 
 position of ions in cartesian coordinates  (Angst):
   0.00000000  1.90509115  1.90682010
   0.00000000  1.90509115  5.71724209
   0.00000000  1.90509115  9.52766408
   1.90509115  1.90509115  0.00000000
   1.90509115  1.90509115  3.81281867
   1.90509115  1.90509115  7.62166551
   1.90509115  0.00000000  1.90682010
   1.90509115  0.00000000  5.71724209
   1.90509115  0.00000000  9.52766408
   0.00000000  0.00000000  0.00000000
   0.00000000  0.00000000  3.81220342
   0.00000000  0.00000000  7.62228075
 


--------------------------------------------------------------------------------------------------------


 k-point     1 :   0.0000 0.0000 0.0000  plane waves:    4467
 k-point     2 :   0.0769 0.0000 0.0000  plane waves:    4443
 k-point     3 :   0.1538 0.0000 0.0000  plane waves:    4456
 k-point     4 :   0.2308 0.0000 0.0000  plane waves:    4460
 k-point     5 :   0.3077 0.0000 0.0000  plane waves:    4478
 k-point     6 :   0.3846 0.0000 0.0000  plane waves:    4472
 k-point     7 :   0.4615 0.0000 0.0000  plane waves:    4470
 k-point     8 :   0.0769 0.0769 0.0000  plane waves:    4452
 k-point     9 :   0.1538 0.0769 0.0000  plane waves:    4454
 k-point    10 :   0.2308 0.0769 0.0000  plane waves:    4461
 k-point    11 :   0.3077 0.0769 0.0000  plane waves:    4463
 k-point    12 :   0.3846 0.0769 0.0000  plane waves:    4468
 k-point    13 :   0.4615 0.0769 0.0000  plane waves:    4469
 k-point    14 :   0.1538 0.1538 0.0000  plane waves:    4454
 k-point    15 :   0.2308 0.1538 0.0000  plane waves:    4459
 k-point    16 :   0.3077 0.1538 0.0000  plane waves:    4469
 k-point    17 :   0.3846 0.1538 0.0000  plane waves:    4478
 k-point    18 :   0.4615 0.1538 0.0000  plane waves:    4480
 k-point    19 :   0.2308 0.2308 0.0000  plane waves:    4462
 k-point    20 :   0.3077 0.2308 0.0000  plane waves:    4469
 k-point    21 :   0.3846 0.2308 0.0000  plane waves:    4471
 k-point    22 :   0.4615 0.2308 0.0000  plane waves:    4491
 k-point    23 :   0.3077 0.3077 0.0000  plane waves:    4454
 k-point    24 :   0.3846 0.3077 0.0000  plane waves:    4467
 k-point    25 :   0.4615 0.3077 0.0000  plane waves:    4488
 k-point    26 :   0.3846 0.3846 0.0000  plane waves:    4478
 k-point    27 :   0.4615 0.3846 0.0000  plane waves:    4485
 k-point    28 :   0.4615 0.4615 0.0000  plane waves:    4472
 k-point    29 :   0.0000 0.0000 0.2500  plane waves:    4455
 k-point    30 :   0.0769 0.0000 0.2500  plane waves:    4431
 k-point    31 :   0.1538 0.0000 0.2500  plane waves:    4444
 k-point    32 :   0.2308 0.0000 0.2500  plane waves:    4452
 k-point    33 :   0.3077 0.0000 0.2500  plane waves:    4476
 k-point    34 :   0.3846 0.0000 0.2500  plane waves:    4485
 k-point    35 :   0.4615 0.0000 0.2500  plane waves:    4477
 k-point    36 :   0.0769 0.0769 0.2500  plane waves:    4435
 k-point    37 :   0.1538 0.0769 0.2500  plane waves:    4448
 k-point    38 :   0.2308 0.0769 0.2500  plane waves:    4461
 k-point    39 :   0.3077 0.0769 0.2500  plane waves:    4470
 k-point    40 :   0.3846 0.0769 0.2500  plane waves:    4473
 k-point    41 :   0.4615 0.0769 0.2500  plane waves:    4477
 k-point    42 :   0.1538 0.1538 0.2500  plane waves:    4448
 k-point    43 :   0.2308 0.1538 0.2500  plane waves:    4467
 k-point    44 :   0.3077 0.1538 0.2500  plane waves:    4477
 k-point    45 :   0.3846 0.1538 0.2500  plane waves:    4479
 k-point    46 :   0.4615 0.1538 0.2500  plane waves:    4480
 k-point    47 :   0.2308 0.2308 0.2500  plane waves:    4470
 k-point    48 :   0.3077 0.2308 0.2500  plane waves:    4470
 k-point    49 :   0.3846 0.2308 0.2500  plane waves:    4476
 k-point    50 :   0.4615 0.2308 0.2500  plane waves:    4480
 k-point    51 :   0.3077 0.3077 0.2500  plane waves:    4469
 k-point    52 :   0.3846 0.3077 0.2500  plane waves:    4472
 k-point    53 :   0.4615 0.3077 0.2500  plane waves:    4480
 k-point    54 :   0.3846 0.3846 0.2500  plane waves:    4472
 k-point    55 :   0.4615 0.3846 0.2500  plane waves:    4474
 k-point    56 :   0.4615 0.4615 0.2500  plane waves:    4483
 k-point    57 :   0.0000 0.0000 0.5000  plane waves:    4410
 k-point    58 :   0.0769 0.0000 0.5000  plane waves:    4422
 k-point    59 :   0.1538 0.0000 0.5000  plane waves:    4424
 k-point    60 :   0.2308 0.0000 0.5000  plane waves:    4464
 k-point    61 :   0.3077 0.0000 0.5000  plane waves:    4484
 k-point    62 :   0.3846 0.0000 0.5000  plane waves:    4476
 k-point    63 :   0.4615 0.0000 0.5000  plane waves:    4472
 k-point    64 :   0.0769 0.0769 0.5000  plane waves:    4418
 k-point    65 :   0.1538 0.0769 0.5000  plane waves:    4440
 k-point    66 :   0.2308 0.0769 0.5000  plane waves:    4460
 k-point    67 :   0.3077 0.0769 0.5000  plane waves:    4476
 k-point    68 :   0.3846 0.0769 0.5000  plane waves:    4478
 k-point    69 :   0.4615 0.0769 0.5000  plane waves:    4478
 k-point    70 :   0.1538 0.1538 0.5000  plane waves:    4438
 k-point    71 :   0.2308 0.1538 0.5000  plane waves:    4470
 k-point    72 :   0.3077 0.1538 0.5000  plane waves:    4480
 k-point    73 :   0.3846 0.1538 0.5000  plane waves:    4484
 k-point    74 :   0.4615 0.1538 0.5000  plane waves:    4482
 k-point    75 :   0.2308 0.2308 0.5000  plane waves:    4476
 k-point    76 :   0.3077 0.2308 0.5000  plane waves:    4474
 k-point    77 :   0.3846 0.2308 0.5000  plane waves:    4484
 k-point    78 :   0.4615 0.2308 0.5000  plane waves:    4480
 k-point    79 :   0.3077 0.3077 0.5000  plane waves:    4472
 k-point    80 :   0.3846 0.3077 0.5000  plane waves:    4492
 k-point    81 :   0.4615 0.3077 0.5000  plane waves:    4488
 k-point    82 :   0.3846 0.3846 0.5000  plane waves:    4480
 k-point    83 :   0.4615 0.3846 0.5000  plane waves:    4486
 k-point    84 :   0.4615 0.4615 0.5000  plane waves:    4472

 maximum and minimum number of plane-waves per node :      4492     4410

 maximum number of plane-waves:      4492
 maximum index in each direction: 
   IXMAX=    7   IYMAX=    7   IZMAX=   21
   IXMIN=   -7   IYMIN=   -7   IZMIN=  -21


 serial   3D FFT for wavefunctions
 parallel 3D FFT for charge:
    minimum data exchange during FFTs selected (reduces bandwidth)


 total amount of memory used by VASP MPI-rank0   301408. kBytes
=======================================================================

   base      :      30000. kBytes
   nonl-proj :     110020. kBytes
   fftplans  :        955. kBytes
   grid      :       7297. kBytes
   one-center:        373. kBytes
   wavefun   :     152763. kBytes
 
     INWAV:  cpu time      0.0000: real time      0.0000
 Broyden mixing: mesh for mixing (old mesh)
   NGX = 15   NGY = 15   NGZ = 43
  (NGX  = 56   NGY  = 56   NGZ  =180)
  gives a total of   9675 points

 initial charge density was supplied:
 charge density of overlapping atoms calculated
 number of electron     156.0000000 magnetization      26.5140000
 charge density for first step will be calculated from the start-wavefunctions


--------------------------------------------------------------------------------------------------------


 Maximum index for augmentation-charges         1047 (set IRDMAX)


--------------------------------------------------------------------------------------------------------


 First call to EWALD:  gamma=   0.323
 Maximum number of real-space cells 4x 4x 2
 Maximum number of reciprocal cells 2x 2x 5

    FEWALD:  cpu time      0.0724: real time      0.0728


--------------------------------------- Ionic step        1  -------------------------------------------




--------------------------------------- Iteration      1(   1)  ---------------------------------------


    POTLOK:  cpu time      0.0356: real time      0.0368
    SETDIJ:  cpu time      0.0150: real time      0.0158
    TRIAL :  cpu time      6.2308: real time      6.2758
    CORREC:  cpu time      0.0040: real time      0.0041
    --------------------------------------------
      LOOP:  cpu time      6.4169: real time      6.4670

 eigenvalue-minimisations  : 43008
 total energy-change (2. order) : 0.1773977E+04  (-0.9179049E+04)
 number of electron     156.0000000 magnetization      26.5140000
 augmentation part      156.0000000 magnetization      26.5140000

 Free energy of the ion-electron system (eV)
  ---------------------------------------------------
  alpha Z        PSCENC =      1025.24174436
  Ewald energy   TEWEN  =    -17721.45548505
  -Hartree energ DENC   =     -6182.83059060
  -exchange      EXHF   =         0.00000000
  -V(xc)+E(xc)   XCENC  =       655.29877973
  PAW double counting   =     20093.25097900   -20817.10978949
  entropy T*S    EENTRO =        -0.00013114
  eigenvalues    EBANDS =       417.47814720
  atomic energy  EATOM  =     24304.10294433
  ---------------------------------------------------
  free energy    TOTEN  =      1773.97659834 eV

  energy without entropy =     1773.97672948  energy(sigma->0) =     1773.97664205


--------------------------------------------------------------------------------------------------------




--------------------------------------- Iteration      1(   2)  ---------------------------------------


    TRIAL :  cpu time      6.1940: real time      6.2370
    CORREC:  cpu time      0.0029: real time      0.0029
    --------------------------------------------
      LOOP:  cpu time      6.2148: real time      6.2617

 eigenvalue-minimisations  : 43008
 total energy-change (2. order) :-0.1767221E+04  (-0.1674755E+04)
 number of electron     156.0000000 magnetization      26.5140000
 augmentation part      156.0000000 magnetization      26.5140000

 Free energy of the ion-electron system (eV)
  ---------------------------------------------------
  alpha Z        PSCENC =      1025.24174436
  Ewald energy   TEWEN  =    -17721.45548505
  -Hartree energ DENC   =     -6182.83059060
  -exchange      EXHF   =         0.00000000
  -V(xc)+E(xc)   XCENC  =       655.29877973
  PAW double counting   =     20093.25097900   -20817.10978949
  entropy T*S    EENTRO =        -0.00556297
  eigenvalues    EBANDS =     -1349.73771501
  atomic energy  EATOM  =     24304.10294433
  ---------------------------------------------------
  free energy    TOTEN  =         6.75530430 eV

  energy without entropy =        6.76086727  energy(sigma->0) =        6.75715862


--------------------------------------------------------------------------------------------------------




--------------------------------------- Iteration      1(   3)  ---------------------------------------


    TRIAL :  cpu time      7.4231: real time      7.4721
    CORREC:  cpu time      0.0025: real time      0.0025
    --------------------------------------------
      LOOP:  cpu time      7.4422: real time      7.4964

 eigenvalue-minimisations  : 50688
 total energy-change (2. order) :-0.1089665E+03  (-0.1071185E+03)
 number of electron     156.0000000 magnetization      26.5140000
 augmentation part      156.0000000 magnetization      26.5140000

 Free energy of the ion-electron system (eV)
  ---------------------------------------------------
  alpha Z        PSCENC =      1025.24174436
  Ewald energy   TEWEN  =    -17721.45548505
  -Hartree energ DENC   =     -6182.83059060
  -exchange      EXHF   =         0.00000000
  -V(xc)+E(xc)   XCENC  =       655.29877973
  PAW double counting   =     20093.25097900   -20817.10978949
  entropy T*S    EENTRO =         0.00078849
  eigenvalues    EBANDS =     -1458.71056977
  atomic energy  EATOM  =     24304.10294433
  ---------------------------------------------------
  free energy    TOTEN  =      -102.21119900 eV

  energy without entropy =     -102.21198749  energy(sigma->0) =     -102.21146183


--------------------------------------------------------------------------------------------------------




--------------------------------------- Iteration      1(   4)  ---------------------------------------


    TRIAL :  cpu time      6.6358: real time      6.6818
    CORREC:  cpu time      0.0025: real time      0.0025
    --------------------------------------------
      LOOP:  cpu time      6.6548: real time      6.7054

 eigenvalue-minimisations  : 46208
 total energy-change (2. order) :-0.1650544E+01  (-0.1650126E+01)
 number of electron     156.0000000 magnetization      26.5140000
 augmentation part      156.0000000 magnetization      26.5140000

 Free energy of the ion-electron system (eV)
  ---------------------------------------------------
  alpha Z        PSCENC =      1025.24174436
  Ewald energy   TEWEN  =    -17721.45548505
  -Hartree energ DENC   =     -6182.83059060
  -exchange      EXHF   =         0.00000000
  -V(xc)+E(xc)   XCENC  =       655.29877973
  PAW double counting   =     20093.25097900   -20817.10978949
  entropy T*S    EENTRO =         0.00059652
  eigenvalues    EBANDS =     -1460.36092222
  atomic energy  EATOM  =     24304.10294433
  ---------------------------------------------------
  free energy    TOTEN  =      -103.86174342 eV

  energy without entropy =     -103.86233994  energy(sigma->0) =     -103.86194226


--------------------------------------------------------------------------------------------------------




--------------------------------------- Iteration      1(   5)  ---------------------------------------


    TRIAL :  cpu time      7.7447: real time      7.7957
    CORREC:  cpu time      0.0026: real time      0.0026
    CHARGE:  cpu time      0.1915: real time      0.1931
    --------------------------------------------
      LOOP:  cpu time      7.9549: real time      8.0126

 eigenvalue-minimisations  : 52736
 total energy-change (2. order) :-0.3385559E-01  (-0.3385466E-01)
 number of electron     155.9999871 magnetization      24.6119964
 augmentation part       79.4778601 magnetization      17.2523626

 Free energy of the ion-electron system (eV)
  ---------------------------------------------------
  alpha Z        PSCENC =      1025.24174436
  Ewald energy   TEWEN  =    -17721.45548505
  -Hartree energ DENC   =     -6182.83059060
  -exchange      EXHF   =         0.00000000
  -V(xc)+E(xc)   XCENC  =       655.29877973
  PAW double counting   =     20093.25097900   -20817.10978949
  entropy T*S    EENTRO =         0.00059230
  eigenvalues    EBANDS =     -1460.39477360
  atomic energy  EATOM  =     24304.10294433
  ---------------------------------------------------
  free energy    TOTEN  =      -103.89559901 eV

  energy without entropy =     -103.89619132  energy(sigma->0) =     -103.89579645


--------------------------------------------------------------------------------------------------------




--------------------------------------- Iteration      1(   6)  ---------------------------------------


    POTLOK:  cpu time      0.0240: real time      0.0242
    SETDIJ:  cpu time      0.0084: real time      0.0084
    TRIAL :  cpu time      3.0116: real time      3.0399
    CORREC:  cpu time      1.1617: real time      1.1727
    CHARGE:  cpu time      0.1801: real time      0.1811
    --------------------------------------------
      LOOP:  cpu time      4.4026: real time      4.4467

 eigenvalue-minimisations  :     0
 total energy-change (2. order) : 0.4940730E+02  (-0.3177500E+02)
 number of electron     155.9999864 magnetization      25.0618054
 augmentation part       83.6956256 magnetization      18.3331853

 Free energy of the ion-electron system (eV)
  ---------------------------------------------------
  alpha Z        PSCENC =      1025.24174436
  Ewald energy   TEWEN  =    -17721.45548505
  -Hartree energ DENC   =     -5037.90070928
  -exchange      EXHF   =         0.00000000
  -V(xc)+E(xc)   XCENC  =       609.26677990
  PAW double counting   =     20610.97203811   -21274.42253189
  entropy T*S    EENTRO =         0.00971694
  eigenvalues    EBANDS =     -2570.29366814
  atomic energy  EATOM  =     24304.10294433
  ---------------------------------------------------
  free energy    TOTEN  =       -54.48829536 eV

  energy without entropy =      -54.49801230  energy(sigma->0) =      -54.49153434


--------------------------------------------------------------------------------------------------------




--------------------------------------- Iteration      1(   7)  ---------------------------------------


    POTLOK:  cpu time      0.0231: real time      0.0233
    SETDIJ:  cpu time      0.0083: real time      0.0084
    TRIAL :  cpu time      3.0241: real time      3.0517
    CORREC:  cpu time      1.1565: real time      1.1685
    CHARGE:  cpu time      0.1776: real time      0.1788
    --------------------------------------------
      LOOP:  cpu time      4.4069: real time      4.4527

 eigenvalue-minimisations  :     0
 total energy-change (2. order) :-0.3226526E+02  (-0.2294652E+01)
 number of electron     155.9999864 magnetization      25.3595971
 augmentation part       84.2292632 magnetization      18.6893257

 Free energy of the ion-electron system (eV)
  ---------------------------------------------------
  alpha Z        PSCENC =      1025.24174436
  Ewald energy   TEWEN  =    -17721.45548505
  -Hartree energ DENC   =     -5652.42971290
  -exchange      EXHF   =         0.00000000
  -V(xc)+E(xc)   XCENC  =       634.45151486
  PAW double counting   =     21596.86577432   -22374.46103670
  entropy T*S    EENTRO =         0.00345379
  eigenvalues    EBANDS =     -1899.07901662
  atomic energy  EATOM  =     24304.10294433
  ---------------------------------------------------
  free energy    TOTEN  =       -86.75355646 eV

  energy without entropy =      -86.75701025  energy(sigma->0) =      -86.75470773


--------------------------------------------------------------------------------------------------------




--------------------------------------- Iteration      1(   8)  ---------------------------------------


    POTLOK:  cpu time      0.0234: real time      0.0236
    SETDIJ:  cpu time      0.0070: real time      0.0070
    TRIAL :  cpu time      2.9909: real time      3.0192
    CORREC:  cpu time      1.1445: real time      1.1563
    CHARGE:  cpu time      0.1788: real time      0.1797
    --------------------------------------------
      LOOP:  cpu time      4.3619: real time      4.4088

 eigenvalue-minimisations  :     0
 total energy-change (2. order) :-0.2264726E+01  (-0.1185007E+01)
 number of electron     155.9999863 magnetization      25.5214086
 augmentation part       84.5169498 magnetization      18.8927406

 Free energy of the ion-electron system (eV)
  ---------------------------------------------------
  alpha Z        PSCENC =      1025.24174436
  Ewald energy   TEWEN  =    -17721.45548505
  -Hartree energ DENC   =     -5726.81805089
  -exchange      EXHF   =         0.00000000
  -V(xc)+E(xc)   XCENC  =       637.75249411
  PAW double counting   =     21763.80013765   -22541.91723764
  entropy T*S    EENTRO =         0.00032228
  eigenvalues    EBANDS =     -1829.72828288
  atomic energy  EATOM  =     24304.10294433
  ---------------------------------------------------
  free energy    TOTEN  =       -89.01828221 eV

  energy without entropy =      -89.01860449  energy(sigma->0) =      -89.01838964


--------------------------------------------------------------------------------------------------------




--------------------------------------- Iteration      1(   9)  ---------------------------------------


    POTLOK:  cpu time      0.0232: real time      0.0234
    SETDIJ:  cpu time      0.0079: real time      0.0080
    TRIAL :  cpu time      2.9635: real time      2.9912
    CORREC:  cpu time      1.1521: real time      1.1647
    CHARGE:  cpu time      0.1774: real time      0.1782
    --------------------------------------------
      LOOP:  cpu time      4.3415: real time      4.3882

 eigenvalue-minimisations  :     0
 total energy-change (2. order) :-0.1792526E+01  (-0.4156750E+00)
 number of electron     155.9999863 magnetization      25.5550787
 augmentation part       84.5145769 magnetization      18.9198557

 Free energy of the ion-electron system (eV)
  ---------------------------------------------------
  alpha Z        PSCENC =      1025.24174436
  Ewald energy   TEWEN  =    -17721.45548505
  -Hartree energ DENC   =     -5764.91929210
  -exchange      EXHF   =         0.00000000
  -V(xc)+E(xc)   XCENC  =       639.52216810
  PAW double counting   =     21863.07129619   -22640.14966168
  entropy T*S    EENTRO =        -0.00021765
  eigenvalues    EBANDS =     -1796.22484497
  atomic energy  EATOM  =     24304.10294433
  ---------------------------------------------------
  free energy    TOTEN  =       -90.81080855 eV

  energy without entropy =      -90.81059090  energy(sigma->0) =      -90.81073600


--------------------------------------------------------------------------------------------------------




--------------------------------------- Iteration      1(  10)  ---------------------------------------


    POTLOK:  cpu time      0.0230: real time      0.0232
    SETDIJ:  cpu time      0.0072: real time      0.0072
    TRIAL :  cpu time      3.0402: real time      3.0692
    CORREC:  cpu time      1.1498: real time      1.1621
    CHARGE:  cpu time      0.1784: real time      0.1792
    --------------------------------------------
      LOOP:  cpu time      4.4151: real time      4.4630

 eigenvalue-minimisations  :     0
 total energy-change (2. order) :-0.3987803E+00  (-0.1246842E+01)
 number of electron     155.9999864 magnetization      25.9493240
 augmentation part       84.5373618 magnetization      19.2660932

 Free energy of the ion-electron system (eV)
  ---------------------------------------------------
  alpha Z        PSCENC =      1025.24174436
  Ewald energy   TEWEN  =    -17721.45548505
  -Hartree energ DENC   =     -5763.33859396
  -exchange      EXHF   =         0.00000000
  -V(xc)+E(xc)   XCENC  =       639.49989471
  PAW double counting   =     21855.30383705   -22630.92402799
  entropy T*S    EENTRO =        -0.00397712
  eigenvalues    EBANDS =     -1799.63968461
  atomic energy  EATOM  =     24304.10294433
  ---------------------------------------------------
  free energy    TOTEN  =       -91.20958882 eV

  energy without entropy =      -91.20561170  energy(sigma->0) =      -91.20826311


--------------------------------------------------------------------------------------------------------




--------------------------------------- Iteration      1(  11)  ---------------------------------------


    POTLOK:  cpu time      0.0231: real time      0.0233
    SETDIJ:  cpu time      0.0077: real time      0.0077
    TRIAL :  cpu time      2.9645: real time      2.9920
    CORREC:  cpu time      1.1506: real time      1.1624
    CHARGE:  cpu time      0.1754: real time      0.1765
    --------------------------------------------
      LOOP:  cpu time      4.3381: real time      4.3843

 eigenvalue-minimisations  :     0
 total energy-change (2. order) :-0.1256396E+01  (-0.2169688E+00)
 number of electron     155.9999863 magnetization      25.9813821
 augmentation part       84.6277896 magnetization      19.3243711

 Free energy of the ion-electron system (eV)
  ---------------------------------------------------
  alpha Z        PSCENC =      1025.24174436
  Ewald energy   TEWEN  =    -17721.45548505
  -Hartree energ DENC   =     -5755.35874449
  -exchange      EXHF   =         0.00000000
  -V(xc)+E(xc)   XCENC  =       639.53947191
  PAW double counting   =     21777.79209172   -22533.24269391
  entropy T*S    EENTRO =        -0.00358757
  eigenvalues    EBANDS =     -1829.08133651
  atomic energy  EATOM  =     24304.10294433
  ---------------------------------------------------
  free energy    TOTEN  =       -92.46598477 eV

  energy without entropy =      -92.46239719  energy(sigma->0) =      -92.46478891


--------------------------------------------------------------------------------------------------------




--------------------------------------- Iteration      1(  12)  ---------------------------------------


    POTLOK:  cpu time      0.0230: real time      0.0233
    SETDIJ:  cpu time      0.0076: real time      0.0077
    TRIAL :  cpu time      2.9424: real time      2.9706
    CORREC:  cpu time      1.1416: real time      1.1535
    CHARGE:  cpu time      0.1730: real time      0.1740
    --------------------------------------------
      LOOP:  cpu time      4.3051: real time      4.3518

 eigenvalue-minimisations  :     0
 total energy-change (2. order) :-0.2144333E+00  (-0.4073255E+00)
 number of electron     155.9999863 magnetization      25.9865795
 augmentation part       85.0306104 magnetization      19.4599470

 Free energy of the ion-electron system (eV)
  ---------------------------------------------------
  alpha Z        PSCENC =      1025.24174436
  Ewald energy   TEWEN  =    -17721.45548505
  -Hartree energ DENC   =     -5769.30233199
  -exchange      EXHF   =         0.00000000
  -V(xc)+E(xc)   XCENC  =       640.12305007
  PAW double counting   =     21793.72217952   -22548.26847554
  entropy T*S    EENTRO =        -0.00123224
  eigenvalues    EBANDS =     -1816.84045618
  atomic energy  EATOM  =     24304.10294433
  ---------------------------------------------------
  free energy    TOTEN  =       -92.68041806 eV

  energy without entropy =      -92.67918582  energy(sigma->0) =      -92.68000732


--------------------------------------------------------------------------------------------------------




--------------------------------------- Iteration      1(  13)  ---------------------------------------


    POTLOK:  cpu time      0.0231: real time      0.0232
    SETDIJ:  cpu time      0.0077: real time      0.0078
    TRIAL :  cpu time      2.9631: real time      2.9917
    CORREC:  cpu time      1.2239: real time      1.2362
    CHARGE:  cpu time      0.1779: real time      0.1788
    --------------------------------------------
      LOOP:  cpu time      4.4130: real time      4.4603

 eigenvalue-minimisations  :     0
 total energy-change (2. order) :-0.4092185E+00  (-0.2829269E-01)
 number of electron     155.9999863 magnetization      25.9977919
 augmentation part       85.0547643 magnetization      19.4819227

 Free energy of the ion-electron system (eV)
  ---------------------------------------------------
  alpha Z        PSCENC =      1025.24174436
  Ewald energy   TEWEN  =    -17721.45548505
  -Hartree energ DENC   =     -5836.48475859
  -exchange      EXHF   =         0.00000000
  -V(xc)+E(xc)   XCENC  =       642.77716941
  PAW double counting   =     21891.94451808   -22651.29880207
  entropy T*S    EENTRO =        -0.00161785
  eigenvalues    EBANDS =     -1747.91573481
  atomic energy  EATOM  =     24304.10294433
  ---------------------------------------------------
  free energy    TOTEN  =       -93.08963658 eV

  energy without entropy =      -93.08801873  energy(sigma->0) =      -93.08909729


--------------------------------------------------------------------------------------------------------




--------------------------------------- Iteration      1(  14)  ---------------------------------------


    POTLOK:  cpu time      0.0238: real time      0.0241
    SETDIJ:  cpu time      0.0081: real time      0.0082
    TRIAL :  cpu time      2.9931: real time      3.0212
    CORREC:  cpu time      1.1446: real time      1.1569
    CHARGE:  cpu time      0.1744: real time      0.1755
    --------------------------------------------
      LOOP:  cpu time      4.3608: real time      4.4082

 eigenvalue-minimisations  :     0
 total energy-change (2. order) :-0.2794589E-01  (-0.4160725E-01)
 number of electron     155.9999863 magnetization      26.0343057
 augmentation part       85.0763991 magnetization      19.5360099

 Free energy of the ion-electron system (eV)
  ---------------------------------------------------
  alpha Z        PSCENC =      1025.24174436
  Ewald energy   TEWEN  =    -17721.45548505
  -Hartree energ DENC   =     -5839.45036595
  -exchange      EXHF   =         0.00000000
  -V(xc)+E(xc)   XCENC  =       642.92469205
  PAW double counting   =     21891.53687840   -22651.11078890
  entropy T*S    EENTRO =        -0.00277134
  eigenvalues    EBANDS =     -1744.90558386
  atomic energy  EATOM  =     24304.10294433
  ---------------------------------------------------
  free energy    TOTEN  =       -93.11758246 eV

  energy without entropy =      -93.11481112  energy(sigma->0) =      -93.11665868


--------------------------------------------------------------------------------------------------------




--------------------------------------- Iteration      1(  15)  ---------------------------------------


    POTLOK:  cpu time      0.0237: real time      0.0240
    SETDIJ:  cpu time      0.0073: real time      0.0073
    TRIAL :  cpu time      2.9367: real time      2.9648
    CORREC:  cpu time      1.1455: real time      1.1578
    CHARGE:  cpu time      0.1752: real time      0.1761
    --------------------------------------------
      LOOP:  cpu time      4.3046: real time      4.3525

 eigenvalue-minimisations  :     0
 total energy-change (2. order) :-0.4122705E-01  (-0.3774608E-01)
 number of electron     155.9999863 magnetization      26.0841790
 augmentation part       85.0771029 magnetization      19.6107889

 Free energy of the ion-electron system (eV)
  ---------------------------------------------------
  alpha Z        PSCENC =      1025.24174436
  Ewald energy   TEWEN  =    -17721.45548505
  -Hartree energ DENC   =     -5839.90045737
  -exchange      EXHF   =         0.00000000
  -V(xc)+E(xc)   XCENC  =       643.03583067
  PAW double counting   =     21877.27152915   -22636.77671472
  entropy T*S    EENTRO =        -0.00455580
  eigenvalues    EBANDS =     -1744.67542952
  atomic energy  EATOM  =     24304.10294433
  ---------------------------------------------------
  free energy    TOTEN  =       -93.15880951 eV

  energy without entropy =      -93.15425371  energy(sigma->0) =      -93.15729091


--------------------------------------------------------------------------------------------------------




--------------------------------------- Iteration      1(  16)  ---------------------------------------


    POTLOK:  cpu time      0.0228: real time      0.0230
    SETDIJ:  cpu time      0.0080: real time      0.0081
    TRIAL :  cpu time      3.0176: real time      3.0471
    CORREC:  cpu time      1.1470: real time      1.1591
    CHARGE:  cpu time      0.1732: real time      0.1741
    --------------------------------------------
      LOOP:  cpu time      4.3859: real time      4.4344

 eigenvalue-minimisations  :     0
 total energy-change (2. order) :-0.3762677E-01  (-0.7657340E-02)
 number of electron     155.9999863 magnetization      26.0966709
 augmentation part       85.0776712 magnetization      19.6331057

 Free energy of the ion-electron system (eV)
  ---------------------------------------------------
  alpha Z        PSCENC =      1025.24174436
  Ewald energy   TEWEN  =    -17721.45548505
  -Hartree energ DENC   =     -5836.07892673
  -exchange      EXHF   =         0.00000000
  -V(xc)+E(xc)   XCENC  =       643.01771137
  PAW double counting   =     21852.26625474   -22611.30556213
  entropy T*S    EENTRO =        -0.00499486
  eigenvalues    EBANDS =     -1748.98056137
  atomic energy  EATOM  =     24304.10294433
  ---------------------------------------------------
  free energy    TOTEN  =       -93.19643628 eV

  energy without entropy =      -93.19144143  energy(sigma->0) =      -93.19477133


--------------------------------------------------------------------------------------------------------




--------------------------------------- Iteration      1(  17)  ---------------------------------------


    POTLOK:  cpu time      0.0229: real time      0.0231
    SETDIJ:  cpu time      0.0081: real time      0.0082
    TRIAL :  cpu time      3.0130: real time      3.0421
    CORREC:  cpu time      1.1596: real time      1.1718
    CHARGE:  cpu time      0.1713: real time      0.1724
    --------------------------------------------
      LOOP:  cpu time      4.3919: real time      4.4404

 eigenvalue-minimisations  :     0
 total energy-change (2. order) :-0.7541959E-02  (-0.9665392E-02)
 number of electron     155.9999863 magnetization      26.1250223
[...]
     66       8.6594      1.03474
     67       8.8895      0.62224
     68       8.8953      0.59822
     69       8.8978      0.58815
     70       9.1046     -0.01608
     71       9.1052     -0.01664
     72       9.1339     -0.03128
     73       9.1347     -0.03159
     74       9.3498     -0.00469
     75       9.3502     -0.00464
     76      10.0704     -0.00000
     77      10.0707     -0.00000
     78      10.1716     -0.00000
     79      10.1717     -0.00000
     80      10.1924     -0.00000
     81      10.1927     -0.00000
     82      10.3979     -0.00000
     83      10.3986     -0.00000
     84      10.5934     -0.00000
     85      10.6306     -0.00000
     86      10.7289     -0.00000
     87      10.7408     -0.00000
     88      10.7929     -0.00000
     89      10.8668     -0.00000
     90      10.9090     -0.00000
     91      10.9161     -0.00000
     92      11.2711     -0.00000
     93      11.2731     -0.00000
     94      11.6386     -0.00000
     95      11.6401     -0.00000
     96      11.7016     -0.00000
     97      11.7033     -0.00000
     98      12.1196     -0.00000
     99      12.1206     -0.00000
    100      14.2861      0.00000
    101      16.0111      0.00000
    102      16.0768      0.00000
    103      16.1214      0.00000
    104      17.0138      0.00000
    105      17.0155      0.00000
    106      17.6644      0.00000
    107      17.6666      0.00000
    108      18.2089      0.00000
    109      18.2111      0.00000
    110      18.6937      0.00000
    111      18.6948      0.00000
    112      22.9887      0.00000
    113      22.9923      0.00000
    114      23.5104      0.00000
    115      23.5122      0.00000
    116      23.7993      0.00000
    117      23.8032      0.00000
    118      24.6169      0.00000
    119      24.6179      0.00000
    120      26.1079      0.00000
    121      26.1127      0.00000
    122      26.1673      0.00000
    123      26.4851      0.00000
    124      27.2202      0.00000
    125      27.2206      0.00000
    126      27.6584      0.00000
    127      27.6599      0.00000
    128      28.1977      0.00000


--------------------------------------------------------------------------------------------------------


 soft charge-density along one line, spin component           1
         0         1         2         3         4         5         6         7         8         9
 total charge-density along one line
 
 soft charge-density along one line, spin component           2
         0         1         2         3         4         5         6         7         8         9
 total charge-density along one line
 
 pseudopotential strength for first ion, spin component:           1
-45.827  -0.000   0.000   7.965   0.000  -0.000   0.000  -0.000
 -0.000 -45.827   0.000   0.000   7.965  -0.000  -0.000   0.000
  0.000   0.000 -45.713  -0.000  -0.000   7.918   0.000  -0.000
  7.965   0.000  -0.000   5.552   0.000  -0.000   0.000   0.000
  0.000   7.965  -0.000   0.000   5.552  -0.000   0.000  -0.000
 -0.000  -0.000   7.918  -0.000  -0.000   5.562  -0.000   0.000
  0.000  -0.000   0.000   0.000   0.000  -0.000  -2.743  -0.000
 -0.000   0.000  -0.000   0.000  -0.000   0.000  -0.000  -2.821
 -0.000  -0.000   0.000   0.000   0.000  -0.000  -0.000  -0.000
 -0.000  -0.000  -0.000   0.000  -0.000   0.000  -0.000   0.000
 -0.000   0.000  -0.000   0.000  -0.000   0.000  -0.000   0.000
 -0.000  -0.000   0.000   0.000   0.000  -0.000  -3.247  -0.000
 -0.000   0.000  -0.000   0.000  -0.000   0.000  -0.000  -3.323
 -0.000  -0.000   0.000   0.000   0.000  -0.000  -0.000  -0.000
 -0.000   0.000  -0.000   0.000   0.000   0.000  -0.000   0.000
 -0.000   0.000  -0.000   0.000  -0.000   0.000  -0.000   0.000
 -0.000   0.000  -0.000  -0.000  -0.000   0.000  -0.000   0.000
 -0.000   0.000  -0.000  -0.000  -0.000   0.000  -0.000   0.000
 pseudopotential strength for first ion, spin component:           2
-43.374  -0.000   0.000   6.935   0.000  -0.000   0.000  -0.000
 -0.000 -43.374  -0.000   0.000   6.935   0.000  -0.000   0.000
  0.000  -0.000 -43.336  -0.000   0.000   6.918   0.000  -0.000
  6.935   0.000  -0.000   5.845   0.000  -0.000   0.000  -0.000
  0.000   6.935   0.000   0.000   5.845   0.000   0.000  -0.000
 -0.000   0.000   6.918  -0.000   0.000   5.849  -0.000   0.000
  0.000  -0.000   0.000   0.000   0.000  -0.000  -0.800  -0.000
 -0.000   0.000  -0.000  -0.000  -0.000   0.000  -0.000  -0.821
 -0.000   0.000   0.000   0.000   0.000  -0.000  -0.000  -0.000
 -0.000  -0.000   0.000   0.000   0.000  -0.000  -0.000   0.000
 -0.000   0.000  -0.000   0.000   0.000   0.000   0.000   0.000
 -0.000  -0.000   0.000   0.000   0.000  -0.000  -1.335  -0.000
 -0.000   0.000  -0.000  -0.000  -0.000   0.000  -0.000  -1.355
 -0.000   0.000   0.000   0.000   0.000  -0.000  -0.000  -0.000
 -0.000   0.000   0.000   0.000   0.000  -0.000  -0.000   0.000
 -0.000   0.000   0.000   0.000   0.000   0.000   0.000   0.000
 -0.000   0.000   0.000  -0.000   0.000  -0.000  -0.000   0.000
 -0.000   0.000  -0.000  -0.000   0.000   0.000  -0.000   0.000
 total augmentation occupancy for first ion, spin component:           1
  1.992  -0.000   0.000  -0.028   0.000   0.000   0.000  -0.000  -0.000  -0.000  -0.000   0.000   0.000  -0.000   0.000   0.000
 -0.000   1.992  -0.000   0.000  -0.028   0.000   0.000   0.000  -0.000  -0.000   0.000   0.000  -0.000   0.000  -0.000  -0.000
  0.000  -0.000   1.992   0.000   0.000  -0.027  -0.000   0.000   0.000  -0.000   0.000   0.000   0.000   0.000   0.000  -0.000
 -0.028   0.000   0.000   0.164   0.000   0.000  -0.000  -0.000   0.000   0.000   0.000  -0.000   0.001  -0.000   0.000  -0.000
  0.000  -0.028   0.000   0.000   0.164  -0.000   0.000  -0.000  -0.000   0.000   0.000   0.000  -0.000   0.000  -0.000  -0.000
  0.000   0.000  -0.027   0.000  -0.000   0.146   0.000  -0.000   0.000  -0.000   0.000   0.000   0.000   0.000   0.000  -0.000
  0.000   0.000  -0.000  -0.000   0.000   0.000   2.979   0.000   0.000  -0.000   0.000  -1.569   0.000  -0.000   0.000   0.000
 -0.000   0.000   0.000  -0.000  -0.000  -0.000   0.000   3.259  -0.000   0.000   0.000   0.000  -2.048   0.000  -0.000   0.000
 -0.000  -0.000   0.000   0.000  -0.000   0.000   0.000  -0.000   3.369   0.000   0.175   0.000  -0.000  -1.870   0.000  -0.102
 -0.000  -0.000  -0.000   0.000   0.000  -0.000  -0.000   0.000   0.000   2.987  -0.000   0.000   0.000   0.000  -1.576   0.000
 -0.000   0.000   0.000   0.000   0.000   0.000   0.000   0.000   0.175  -0.000   3.173   0.000   0.000  -0.102  -0.000  -1.758
  0.000   0.000   0.000  -0.000   0.000   0.000  -1.569   0.000   0.000   0.000   0.000   1.564  -0.000   0.000  -0.000   0.000
  0.000  -0.000   0.000   0.001  -0.000   0.000   0.000  -2.048  -0.000   0.000   0.000  -0.000   2.156  -0.000   0.000  -0.000
 -0.000   0.000   0.000  -0.000   0.000   0.000  -0.000   0.000  -1.870   0.000  -0.102   0.000  -0.000   1.628  -0.000   0.024
  0.000  -0.000   0.000   0.000  -0.000   0.000   0.000  -0.000   0.000  -1.576  -0.000  -0.000   0.000  -0.000   1.568  -0.000
  0.000  -0.000  -0.000  -0.000  -0.000  -0.000   0.000   0.000  -0.102   0.000  -1.758   0.000  -0.000   0.024  -0.000   1.604
  0.000  -0.000   0.000   0.000   0.000  -0.000  -0.000  -0.000  -0.096   0.000   0.167  -0.000   0.000   0.066  -0.000  -0.116
  0.000   0.000   0.000   0.000  -0.000  -0.000   0.000   0.000   0.006   0.000  -0.010  -0.000   0.000  -0.004   0.000   0.006
 total augmentation occupancy for first ion, spin component:           2
 -0.002   0.000   0.000  -0.010   0.000  -0.000  -0.000   0.000  -0.000   0.000   0.000   0.000  -0.000   0.000  -0.000   0.000
  0.000  -0.002   0.000   0.000  -0.010   0.000  -0.000  -0.000   0.000   0.000  -0.000  -0.000   0.000  -0.000  -0.000   0.000
  0.000   0.000  -0.002   0.000   0.000  -0.010   0.000  -0.000   0.000   0.000   0.000   0.000  -0.000   0.000  -0.000  -0.000
 -0.010   0.000   0.000  -0.005   0.000   0.000   0.000  -0.000   0.000   0.000   0.000   0.000   0.000   0.000   0.000  -0.000
  0.000  -0.010   0.000   0.000  -0.005   0.000   0.000   0.000  -0.000  -0.000   0.000  -0.000  -0.000   0.000   0.000   0.000
 -0.000   0.000  -0.010   0.000   0.000  -0.012  -0.000   0.000   0.000  -0.000   0.000  -0.000  -0.000  -0.000   0.000   0.000
 -0.000  -0.000   0.000   0.000   0.000  -0.000   2.503  -0.000   0.000  -0.000   0.000  -1.100  -0.000  -0.000   0.000   0.000
  0.000  -0.000  -0.000  -0.000   0.000   0.000  -0.000   2.554   0.000   0.000   0.000   0.000  -1.054   0.000  -0.000   0.000
 -0.000   0.000   0.000   0.000  -0.000   0.000   0.000   0.000   2.842  -0.000   0.107   0.000   0.000  -1.216   0.000  -0.097
  0.000   0.000   0.000   0.000  -0.000  -0.000  -0.000   0.000  -0.000   2.512   0.000   0.000   0.000  -0.000  -1.105   0.000
  0.000  -0.000   0.000   0.000   0.000   0.000   0.000   0.000   0.107   0.000   2.725   0.000   0.000  -0.097  -0.000  -1.108
  0.000  -0.000   0.000   0.000  -0.000  -0.000  -1.100   0.000   0.000   0.000   0.000   0.288   0.000  -0.000   0.000   0.000
 -0.000   0.000  -0.000   0.000  -0.000  -0.000  -0.000  -1.054   0.000   0.000   0.000   0.000   0.193   0.000   0.000  -0.000
  0.000  -0.000   0.000   0.000   0.000  -0.000  -0.000   0.000  -1.216  -0.000  -0.097  -0.000   0.000   0.393  -0.000   0.110
 -0.000  -0.000  -0.000   0.000   0.000   0.000   0.000  -0.000   0.000  -1.105  -0.000   0.000   0.000  -0.000   0.291   0.000
  0.000   0.000  -0.000  -0.000   0.000   0.000   0.000   0.000  -0.097   0.000  -1.108   0.000  -0.000   0.110   0.000   0.268
  0.000   0.000   0.000   0.000   0.000   0.000   0.000   0.000  -0.035   0.000   0.062   0.000   0.000   0.035   0.000  -0.061
  0.000  -0.000   0.000   0.000   0.000  -0.000   0.000   0.000   0.003   0.000  -0.005   0.000   0.000  -0.001  -0.000   0.001


------------------------ aborting loop because EDIFF is reached ----------------------------------------





 total charge

# of ion       s       p       d       tot
------------------------------------------
    1        0.331   6.292   5.985  12.607
    2        0.331   6.292   5.985  12.608
    3        0.331   6.292   5.985  12.607
    4        0.331   6.292   5.984  12.607
    5        0.331   6.292   5.985  12.608
    6        0.331   6.292   5.985  12.608
    7        0.331   6.292   5.985  12.607
    8        0.331   6.292   5.985  12.608
    9        0.331   6.292   5.985  12.607
   10        0.730   0.629   8.014   9.374
   11        0.730   0.630   8.015   9.375
   12        0.730   0.630   8.015   9.375
--------------------------------------------------
tot          5.168  58.518  77.907 141.593



 magnetization (x)

# of ion       s       p       d       tot
------------------------------------------
    1       -0.000  -0.017   2.860   2.843
    2       -0.000  -0.017   2.858   2.841
    3       -0.000  -0.017   2.860   2.843
    4       -0.000  -0.017   2.862   2.845
    5       -0.000  -0.017   2.859   2.842
    6       -0.000  -0.017   2.859   2.842
    7       -0.000  -0.017   2.860   2.843
    8       -0.000  -0.017   2.858   2.841
    9       -0.000  -0.017   2.860   2.843
   10       -0.042  -0.098   0.444   0.304
   11       -0.042  -0.098   0.444   0.304
   12       -0.042  -0.098   0.444   0.304
--------------------------------------------------
tot         -0.128  -0.442  27.065  26.494
 
    FORLOC:  cpu time      0.0009: real time      0.0009
    FORNL :  cpu time      0.7684: real time      0.7723
    STRESS:  cpu time      4.7177: real time      4.7527
    FORCOR:  cpu time      0.0221: real time      0.0223
    OFIELD:  cpu time      0.0002: real time      0.0002

  FORCE on cell =-STRESS in cart. coord.  units (eV):
  Direction    XX          YY          ZZ          XY          YZ          ZX
  --------------------------------------------------------------------------------------
  Alpha Z  1025.24174  1025.24174  1025.24174
  Ewald   -5906.97395 -5906.97395 -5907.52208    -0.00000    -0.00000    -0.00000
  Hartree  1944.92632  1944.92632  1944.60740    -0.00000    -0.00000    -0.00000
  E(xc)    -942.80930  -942.80930  -942.80860     0.00000     0.00000    -0.00000
  Local     971.34603   971.34603   972.11204     0.00000     0.00000    -0.00000
  n-local  -224.71460  -240.02386  -232.27775    13.62357    -0.16717     0.20925
  augment  1440.73290  1440.73290  1440.73541     0.00000     0.00000    -0.00000
  Kinetic  1692.96182  1687.53097  1690.31390     1.69753     0.23932     1.29247
  Fock        0.00000     0.00000     0.00000     0.00000     0.00000     0.00000
  -------------------------------------------------------------------------------------
  Total      -9.65908    -9.65908    -9.59793     0.00000     0.00000    -0.00000
  in kB     -93.22630   -93.22630   -92.63602     0.00000     0.00000    -0.00000
  external pressure =      -93.03 kB  Pullay stress =        0.00 kB


 VOLUME and BASIS-vectors are now :
 -----------------------------------------------------------------------------
  energy-cutoff  :      520.00
  volume of cell :      166.00
      direct lattice vectors                 reciprocal lattice vectors
     3.810005715  0.000000000  0.000000000     0.262466798  0.000000000  0.000000000
     0.000000000  3.810005715 -0.000000000     0.000000000  0.262466798  0.000000000
    -0.000000000  0.000000000 11.435544117     0.000000000  0.000000000  0.087446648

  length of vectors
     3.810005715  3.810005715 11.435544117     0.262466798  0.262466798  0.087446648


 FORCES acting on ions:
    Electron-Ion                     Ewald-Force                    Non-Local-Force
 -----------------------------------------------------------------------------------------------
   -.968E-13 0.140E-11 0.273E+01   -.639E-14 -.155E-14 -.273E+01   -.145E-20 -.203E-20 -.672E-02
   -.975E-13 0.112E-11 -.170E-12   0.805E-15 -.113E-13 0.284E-12   0.121E-24 0.321E-24 0.234E-23
   -.985E-13 -.412E-12 -.273E+01   0.130E-13 -.959E-14 0.273E+01   0.135E-20 0.235E-20 0.672E-02
   0.107E-11 0.797E-11 0.540E-11   -.142E-13 0.795E-15 -.227E-12   0.641E-25 0.600E-25 -.152E-24
   0.108E-11 -.416E-11 0.306E+01   0.377E-14 -.255E-13 -.306E+01   0.549E-20 0.343E-20 -.108E-01
   0.108E-11 -.343E-11 -.306E+01   -.318E-13 -.231E-13 0.306E+01   -.738E-20 -.208E-20 0.108E-01
   0.110E-11 -.634E-13 0.273E+01   0.134E-13 0.134E-13 -.273E+01   -.572E-20 0.159E-20 -.672E-02
   0.108E-11 -.583E-13 0.280E-11   -.135E-13 0.310E-14 0.284E-12   0.266E-24 0.118E-24 0.207E-23
   0.109E-11 -.548E-13 -.273E+01   -.248E-13 -.924E-14 0.273E+01   0.586E-20 -.208E-20 0.672E-02
   -.582E-13 -.443E-13 0.179E-12   -.217E-14 0.185E-13 -.114E-12   -.350E-24 -.481E-24 -.333E-24
   -.582E-13 -.387E-13 0.185E+01   -.165E-13 0.286E-15 -.185E+01   0.102E-20 0.103E-20 0.326E-02
   -.585E-13 -.504E-13 -.185E+01   0.404E-13 0.175E-13 0.185E+01   -.606E-21 0.228E-20 -.326E-02
 -----------------------------------------------------------------------------------------------
   0.608E-11 0.220E-11 0.155E-10   -.380E-13 -.266E-13 -.257E-12   -.144E-20 0.449E-20 -.173E-17
 
 
 POSITION                                       TOTAL-FORCE (eV/Angst)
 -----------------------------------------------------------------------------------
     -0.00000      1.90500      1.90715         0.000000      0.000000     -0.005689
     -0.00000      1.90500      5.71777         0.000000     -0.000000      0.000000
     -0.00000      1.90500      9.52840        -0.000000     -0.000000      0.005689
      1.90500      1.90500     -0.00000        -0.000000      0.000000     -0.000000
      1.90500      1.90500      3.81349         0.000000      0.000000     -0.004805
      1.90500      1.90500      7.62205        -0.000000      0.000000      0.004805
      1.90500      0.00000      1.90715         0.000000     -0.000000     -0.005689
      1.90500      0.00000      5.71777        -0.000000     -0.000000      0.000000
      1.90500      0.00000      9.52840        -0.000000     -0.000000      0.005689
     -0.00000      0.00000      0.00000         0.000000     -0.000000      0.000000
     -0.00000      0.00000      3.81271        -0.000000     -0.000000      0.001770
     -0.00000      0.00000      7.62284         0.000000     -0.000000     -0.001770
 -----------------------------------------------------------------------------------
    total drift:                                0.000000      0.000000      0.000000


--------------------------------------------------------------------------------------------------------



  FREE ENERGIE OF THE ION-ELECTRON SYSTEM (eV)
  ---------------------------------------------------
  free  energy   TOTEN  =       -93.23719542 eV

  energy  without entropy=      -93.22699188  energy(sigma->0) =      -93.23379424
 
 d Force = 0.9677521E-05[ 0.459E-05, 0.148E-04]  d Energy =-0.1712433E-06 0.985E-05
 d Force = 0.3392209E-02[ 0.319E-02, 0.359E-02]  d Ewald  = 0.3435722E-02-0.435E-04


--------------------------------------------------------------------------------------------------------


    POTLOK:  cpu time      0.0433: real time      0.0436


--------------------------------------------------------------------------------------------------------




--------------------------------------------------------------------------------------------------------


  
 reached required accuracy - stopping structural energy minimisation
     LOOP+:  cpu time     46.2562: real time     46.7394
    4ORBIT:  cpu time      0.0000: real time      0.0000



 total charge

# of ion       s       p       d       tot
------------------------------------------
    1        0.331   6.292   5.985  12.607
    2        0.331   6.292   5.985  12.608
    3        0.331   6.292   5.985  12.607
    4        0.331   6.292   5.984  12.607
    5        0.331   6.292   5.985  12.608
    6        0.331   6.292   5.985  12.608
    7        0.331   6.292   5.985  12.607
    8        0.331   6.292   5.985  12.608
    9        0.331   6.292   5.985  12.607
   10        0.730   0.629   8.014   9.374
   11        0.730   0.630   8.015   9.375
   12        0.730   0.630   8.015   9.375
--------------------------------------------------
tot          5.168  58.518  77.907 141.593



 magnetization (x)

# of ion       s       p       d       tot
------------------------------------------
    1       -0.000  -0.017   2.860   2.843
    2       -0.000  -0.017   2.858   2.841
    3       -0.000  -0.017   2.860   2.843
    4       -0.000  -0.017   2.862   2.845
    5       -0.000  -0.017   2.859   2.842
    6       -0.000  -0.017   2.859   2.842
    7       -0.000  -0.017   2.860   2.843
    8       -0.000  -0.017   2.858   2.841
    9       -0.000  -0.017   2.860   2.843
   10       -0.042  -0.098   0.444   0.304
   11       -0.042  -0.098   0.444   0.304
   12       -0.042  -0.098   0.444   0.304
--------------------------------------------------
tot         -0.128  -0.442  27.065  26.494
 

 total amount of memory used by VASP MPI-rank0   301408. kBytes
=======================================================================

   base      :      30000. kBytes
   nonl-proj :     110020. kBytes
   fftplans  :        955. kBytes
   grid      :       7297. kBytes
   one-center:        373. kBytes
   wavefun   :     152763. kBytes
 
  
  
 General timing and accounting informations for this job:
 ========================================================
  
                  Total CPU time used (sec):      315.720
                            User time (sec):      308.840
                          System time (sec):        6.881
                         Elapsed time (sec):      324.744
  
                   Maximum memory used (kb):     1234512.
                   Average memory used (kb):          N/A
  
                          Minor page faults:       213315
                          Major page faults:          122
                 Voluntary context switches:         9695
