 vasp.6.4.3 19Mar24 (build Mar 26 2024 14:05:37) complex                        
  
 executed on             LinuxIFC date 2024.12.16  13:12:51
 running  128 mpi-ranks, on    1 nodes
 distrk:  each k-point on   32 cores,    4 groups
 distr:  one band on NCORE=   1 cores,   32 groups


--------------------------------------------------------------------------------------------------------


 INCAR:
   ALGO = All
   EDIFF = 1e-06
   EDIFFG = -0.01
   ENCUT = 520
   GGA = Pe
   IBRION = 2
   ISIF = 4
   ISMEAR = 1
   ISPIN = 2
   KPAR = 4
   LCHARG = True
   LORBIT = 11
   LREAL = False
   LWAVE = False
   MAGMOM = 1*-2.642 2*2.636 2*-2.676 1*2.813 1*-2.642 2*2.636 2*-0.085 1*0.243
   NELM = 200
   NSW = 100
   PREC = Accurate
   SIGMA = 0.2

 POTCAR:    PAW_PBE Fe_pv 02Aug2007               
 POTCAR:    PAW_PBE Pt 04Feb2005                  
 -----------------------------------------------------------------------------
|                                                                             |
|           W    W    AA    RRRRR   N    N  II  N    N   GGGG   !!!           |
|           W    W   A  A   R    R  NN   N  II  NN   N  G    G  !!!           |
|           W    W  A    A  R    R  N N  N  II  N N  N  G       !!!           |
|           W WW W  AAAAAA  RRRRR   N  N N  II  N  N N  G  GGG   !            |
|           WW  WW  A    A  R   R   N   NN  II  N   NN  G    G                |
|           W    W  A    A  R    R  N    N  II  N    N   GGGG   !!!           |
|                                                                             |
|     For optimal performance we recommend to set                             |
|       NCORE = 2 up to number-of-cores-per-socket                            |
|     NCORE specifies how many cores store one orbital (NPAR=cpu/NCORE).      |
|     This setting can greatly improve the performance of VASP for DFT.       |
|     The default, NCORE=1 might be grossly inefficient on modern             |
|     multi-core architectures or massively parallel machines. Do your        |
|     own testing! More info at https://www.vasp.at/wiki/index.php/NCORE      |
|     Unfortunately you need to use the default for GW and RPA                |
|     calculations (for HF NCORE is supported but not extensively tested      |
|     yet).                                                                   |
|                                                                             |
 -----------------------------------------------------------------------------

 POTCAR:    PAW_PBE Fe_pv 02Aug2007               
   SHA256 =  5d22e414b1f82158bf2c7ecb8b97b28fd0923e48cadc1c3bf74d524558f5dd32 Fe_pv/POTCAR          
   COPYR  = (c) Copyright 02Aug2007 Georg Kresse                                                    
   COPYR  = This file is part of the software VASP. Any use, copying, and all other rights are regul
   COPYR  = If you do not have a valid VASP license, you may not use, copy or distribute this file. 
   VRHFIN =Fe:  3pd7s1                                                                              
   LEXCH  = PE                                                                                      
   EATOM  =  2457.4239 eV,  180.6156 Ry                                                             
                                                                                                    
   TITEL  = PAW_PBE Fe_pv 02Aug2007                                                                 
   LULTRA =        F    use ultrasoft PP ?                                                          
   IUNSCR =        1    unscreen: 0-lin 1-nonlin 2-no                                               
   RPACOR =    1.750    partial core radius                                                         
   POMASS =   55.847; ZVAL   =   14.000    mass and valenz                                          
   RCORE  =    2.200    outmost cutoff radius                                                       
   RWIGS  =    2.200; RWIGS  =    1.164    wigner-seitz radius (au A)                               
   ENMAX  =  293.238; ENMIN  =  219.928 eV                                                          
   ICORE  =        3    local potential                                                             
   LCOR   =        T    correct aug charges                                                         
   LPAW   =        T    paw PP                                                                      
   EAUG   =  578.342                                                                                
   DEXC   =    0.000                                                                                
   RMAX   =    2.249    core radius for proj-oper                                                   
   RAUG   =    1.300    factor for augmentation sphere                                              
   RDEP   =    2.296    radius for radial grids                                                     
   RDEPT  =    1.766    core radius for aug-charge                                                  
                                                                                                    
   Atomic configuration                                                                             
    8 entries                                                                                       
     n  l   j            E        occ.                                                              
     1  0  0.50     -6993.8440   2.0000                                                             
     2  0  0.50      -814.6047   2.0000                                                             
     2  1  1.50      -693.3689   6.0000                                                             
     3  0  0.50       -89.4732   2.0000                                                             
     3  1  1.50       -55.6373   6.0000                                                             
     3  2  2.50        -3.8151   7.0000                                                             
     4  0  0.50        -4.2551   1.0000                                                             
     4  3  2.50        -1.3606   0.0000                                                             
   Description                                                                                      
     l       E           TYP  RCUT    TYP  RCUT                                                     
     1    -55.6372668     23  2.000                                                                 
     1     -5.4423304     23  2.000                                                                 
     2     -3.8151096     23  2.200                                                                 
     2     -5.1756922     23  2.200                                                                 
     0     -4.2550951     23  2.200                                                                 
     0     27.2116520     23  2.200                                                                 
     3     -1.3605826     23  2.200                                                                 
  local pseudopotential read in
  partial core-charges read in
  partial kinetic energy density read in
  atomic valenz-charges read in
  non local Contribution for L=           1  read in
    real space projection operators read in
  non local Contribution for L=           1  read in
    real space projection operators read in
  non local Contribution for L=           2  read in
    real space projection operators read in
  non local Contribution for L=           2  read in
    real space projection operators read in
  non local Contribution for L=           0  read in
    real space projection operators read in
  non local Contribution for L=           0  read in
    real space projection operators read in
    PAW grid and wavefunctions read in
 
   number of l-projection  operators is LMAX  =           6
   number of lm-projection operators is LMMAX =          18
 
 POTCAR:    PAW_PBE Pt 04Feb2005                  
   SHA256 =  3ed90460adef76debcff1cfb73ee1349b515b1a3db03439735b44de3a8db7dc8 Pt/POTCAR             
   COPYR  = (c) Copyright 04Feb2005 Georg Kresse                                                    
   COPYR  = This file is part of the software VASP. Any use, copying, and all other rights are regul
   COPYR  = If you do not have a valid VASP license, you may not use, copy or distribute this file. 
   VRHFIN =Pt: s1d9                                                                                 
   LEXCH  = PE                                                                                      
   EATOM  =   729.1176 eV,   53.5886 Ry                                                             
                                                                                                    
   TITEL  = PAW_PBE Pt 04Feb2005                                                                    
   LULTRA =        F    use ultrasoft PP ?                                                          
   IUNSCR =        1    unscreen: 0-lin 1-nonlin 2-no                                               
   RPACOR =    2.330    partial core radius                                                         
   POMASS =  195.080; ZVAL   =   10.000    mass and valenz                                          
   RCORE  =    2.600    outmost cutoff radius                                                       
   RWIGS  =    2.750; RWIGS  =    1.455    wigner-seitz radius (au A)                               
   ENMAX  =  230.283; ENMIN  =  172.712 eV                                                          
   ICORE  =        3    local potential                                                             
   LCOR   =        T    correct aug charges                                                         
   LPAW   =        T    paw PP                                                                      
   EAUG   =  358.966                                                                                
   DEXC   =    0.000                                                                                
   RMAX   =    2.658    core radius for proj-oper                                                   
   RAUG   =    1.300    factor for augmentation sphere                                              
   RDEP   =    2.761    radius for radial grids                                                     
   RDEPT  =    2.203    core radius for aug-charge                                                  
                                                                                                    
   Atomic configuration                                                                             
   16 entries                                                                                       
     n  l   j            E        occ.                                                              
     1  0  0.50    -78401.1885   2.0000                                                             
     2  0  0.50    -13770.7750   2.0000                                                             
     2  1  1.50    -11931.0468   6.0000                                                             
     3  0  0.50     -3234.7234   2.0000                                                             
     3  1  1.50     -2699.2216   6.0000                                                             
     3  2  2.50     -2119.5714  10.0000                                                             
     4  0  0.50      -695.1528   2.0000                                                             
     4  1  1.50      -519.6034   6.0000                                                             
     4  2  2.50      -306.6786  10.0000                                                             
     4  3  3.50       -70.1041  14.0000                                                             
     5  0  0.50      -101.7747   2.0000                                                             
     5  1  1.50       -55.9873   6.0000                                                             
     5  2  2.50        -6.1423   9.0000                                                             
     6  0  0.50        -5.6573   1.0000                                                             
     6  1  1.50        -6.8029   0.0000                                                             
     5  3  2.50        -1.3606   0.0000                                                             
   Description                                                                                      
     l       E           TYP  RCUT    TYP  RCUT                                                     
     2     -6.1423404     23  2.500                                                                 
     2     -7.5029230     23  2.500                                                                 
     0     -5.6573207     23  2.500                                                                 
     0      0.7416693     23  2.500                                                                 
     1     -2.7211652     23  2.600                                                                 
     1     20.4087390     23  2.600                                                                 
     3     -1.3605826     23  2.500                                                                 
  local pseudopotential read in
  partial core-charges read in
  partial kinetic energy density read in
  atomic valenz-charges read in
  non local Contribution for L=           2  read in
    real space projection operators read in
  non local Contribution for L=           2  read in
    real space projection operators read in
  non local Contribution for L=           0  read in
    real space projection operators read in
  non local Contribution for L=           0  read in
    real space projection operators read in
  non local Contribution for L=           1  read in
    real space projection operators read in
  non local Contribution for L=           1  read in
    real space projection operators read in
    PAW grid and wavefunctions read in
 
   number of l-projection  operators is LMAX  =           6
   number of lm-projection operators is LMMAX =          18
 
  PAW_PBE Fe_pv 02Aug2007               :
 energy of atom  1       EATOM=-2457.4239
 kinetic energy error for atom=    0.0062 (will be added to EATOM!!)
  PAW_PBE Pt 04Feb2005                  :
 energy of atom  2       EATOM= -729.1176
 kinetic energy error for atom=    0.0032 (will be added to EATOM!!)
 
 
 POSCAR: Fe9 Pt3
  positions in direct lattice
  velocities in cartesian coordinates


 exchange-correlation table for PE
   RHO(1)=    0.500       N(1)  =     2000
   RHO(2)=  100.500       N(2)  =     4000
 


--------------------------------------------------------------------------------------------------------


 ion  position               nearest neighbor table
   1  0.000  0.500  0.167-   4 2.60   4 2.60   5 2.60   5 2.60   7 2.65   7 2.65   7 2.65   7 2.65
                            11 2.69  11 2.69  10 2.69  10 2.69
   2  0.000  0.500  0.500-  11 2.64  11 2.64   8 2.65   8 2.65   8 2.65   8 2.65   6 2.67   6 2.67
                            12 2.67  12 2.67   5 2.73   5 2.73
   3  0.000  0.500  0.834-  10 2.64  10 2.64   9 2.65   9 2.65   9 2.65   9 2.65  12 2.67  12 2.67
                             6 2.67   6 2.67   4 2.73   4 2.73
   4  0.500  0.500  0.008-   1 2.60   7 2.60   7 2.60   1 2.60  10 2.65  10 2.65  10 2.65  10 2.65
                             9 2.73   3 2.73   9 2.73   3 2.73
   5  0.500  0.500  0.325-   1 2.60   7 2.60   7 2.60   1 2.60  11 2.65  11 2.65  11 2.65  11 2.65
                             8 2.73   2 2.73   8 2.73   2 2.73
   6  0.500  0.500  0.667-  12 2.65  12 2.65  12 2.65  12 2.65   8 2.67   2 2.67   2 2.67   8 2.67
                             9 2.67   3 2.67   9 2.67   3 2.67
   7  0.500  0.000  0.167-   4 2.60   4 2.60   5 2.60   5 2.60   1 2.65   1 2.65   1 2.65   1 2.65
                            11 2.69  11 2.69  10 2.69  10 2.69
   8  0.500  0.000  0.500-  11 2.64  11 2.64   2 2.65   2 2.65   2 2.65   2 2.65   6 2.67   6 2.67
                            12 2.67  12 2.67   5 2.73   5 2.73
   9  0.500  0.000  0.834-  10 2.64  10 2.64   3 2.65   3 2.65   3 2.65   3 2.65  12 2.67  12 2.67
                             6 2.67   6 2.67   4 2.73   4 2.73
  10  0.000  0.000  0.997-   3 2.64   9 2.64   3 2.64   9 2.64   4 2.65   4 2.65   4 2.65   4 2.65
                             1 2.69   7 2.69   7 2.69   1 2.69
  11  0.000  0.000  0.336-   2 2.64   8 2.64   2 2.64   8 2.64   5 2.65   5 2.65   5 2.65   5 2.65
                             1 2.69   7 2.69   7 2.69   1 2.69
  12  0.000  0.000  0.667-   6 2.65   6 2.65   6 2.65   6 2.65   3 2.67   9 2.67   9 2.67   3 2.67
                             2 2.67   8 2.67   8 2.67   2 2.67
 
  LATTYP: Found a simple tetragonal cell.
 ALAT       =     3.7418067877
 C/A-ratio  =     3.0540483426
  
  Lattice vectors:
  
 A1 = (   3.7418067877,   0.0000000000,   0.0000000000)
 A2 = (   0.0000000000,   3.7418067877,   0.0000000000)
 A3 = (   0.0000000000,   0.0000000000,  11.4276588183)


Analysis of symmetry for initial positions (statically):
=====================================================================
 Subroutine PRICEL returns:
 Original cell was already a primitive cell.
 

 Routine SETGRP: Setting up the symmetry group for a 
 simple tetragonal supercell.


 Subroutine GETGRP returns: Found  8 space group operations
 (whereof  8 operations were pure point group operations)
 out of a pool of 16 trial point group operations.


The static configuration has the point symmetry C_4v.


Analysis of symmetry for dynamics (positions and initial velocities):
=====================================================================
 Subroutine PRICEL returns:
 Original cell was already a primitive cell.
 

 Routine SETGRP: Setting up the symmetry group for a 
 simple tetragonal supercell.


 Subroutine GETGRP returns: Found  8 space group operations
 (whereof  8 operations were pure point group operations)
 out of a pool of 16 trial point group operations.


The dynamic configuration has the point symmetry C_4v.


Analysis of structural, dynamic, and magnetic symmetry:
=====================================================================
 Subroutine PRICEL returns:
 Original cell was already a primitive cell.
 

 Routine SETGRP: Setting up the symmetry group for a 
 simple tetragonal supercell.


 Subroutine GETGRP returns: Found  8 space group operations
 (whereof  8 operations were pure point group operations)
 out of a pool of 16 trial point group operations.


The overall configuration has the point symmetry C_4v.


 Subroutine INISYM returns: Found  8 space group operations
 (whereof  8 operations are pure point group operations),
 and found     1 'primitive' translations


----------------------------------------------------------------------------------------

                                     Primitive cell                                     

  volume of cell :     160.0000

  direct lattice vectors                    reciprocal lattice vectors
     3.741806788  0.000000000  0.000000000     0.267250571  0.000000000  0.000000000
     0.000000000  3.741806788  0.000000000     0.000000000  0.267250571  0.000000000
     0.000000000  0.000000000 11.427658818     0.000000000  0.000000000  0.087506988

  length of vectors
     3.741806788  3.741806788 11.427658818     0.267250571  0.267250571  0.087506988

  position of ions in fractional coordinates (direct lattice)
     0.000000000  0.500000000  0.166673988
     0.000000000  0.500000000  0.499584835
     0.000000000  0.500000000  0.833731269
     0.500000000  0.500000000  0.008118563
     0.500000000  0.500000000  0.325262524
     0.500000000  0.500000000  0.666649650
     0.500000000  0.000000000  0.166673988
     0.500000000  0.000000000  0.499584835
     0.500000000  0.000000000  0.833731269
     0.000000000  0.000000000  0.997309696
     0.000000000  0.000000000  0.335977111
     0.000000000  0.000000000  0.666702272

  ion indices of the primitive-cell ions
   primitive index   ion index
                 1           1
                 2           2
                 3           3
                 4           4
                 5           5
                 6           6
                 7           7
                 8           8
                 9           9
                10          10
                11          11
                12          12

----------------------------------------------------------------------------------------

 
 
 KPOINTS: pymatgen with grid density = 8800 / numb

Automatic generation of k-mesh.
 Grid dimensions read from file:
 generate k-points for:   13   13    4

 Generating k-lattice:

  Cartesian coordinates                     Fractional coordinates (reciprocal lattice)
     0.020557736  0.000000000  0.000000000     0.076923077  0.000000000  0.000000000
     0.000000000  0.020557736  0.000000000     0.000000000  0.076923077  0.000000000
     0.000000000  0.000000000  0.021876747     0.000000000  0.000000000  0.250000000

  Length of vectors
     0.020557736  0.020557736  0.021876747

  Shift w.r.t. Gamma in fractional coordinates (k-lattice)
     0.000000000  0.000000000  0.000000000

 
 Subroutine IBZKPT returns following result:
 ===========================================
 
 Found     84 irreducible k-points:
 
 Following reciprocal coordinates:
            Coordinates               Weight
  0.000000  0.000000  0.000000      1.000000
  0.076923  0.000000  0.000000      4.000000
  0.153846  0.000000  0.000000      4.000000
  0.230769  0.000000  0.000000      4.000000
  0.307692  0.000000  0.000000      4.000000
  0.384615  0.000000  0.000000      4.000000
  0.461538  0.000000  0.000000      4.000000
  0.076923  0.076923  0.000000      4.000000
  0.153846  0.076923  0.000000      8.000000
  0.230769  0.076923  0.000000      8.000000
  0.307692  0.076923  0.000000      8.000000
  0.384615  0.076923  0.000000      8.000000
  0.461538  0.076923  0.000000      8.000000
  0.153846  0.153846  0.000000      4.000000
  0.230769  0.153846  0.000000      8.000000
  0.307692  0.153846  0.000000      8.000000
  0.384615  0.153846  0.000000      8.000000
  0.461538  0.153846  0.000000      8.000000
  0.230769  0.230769  0.000000      4.000000
  0.307692  0.230769  0.000000      8.000000
  0.384615  0.230769  0.000000      8.000000
  0.461538  0.230769  0.000000      8.000000
  0.307692  0.307692  0.000000      4.000000
  0.384615  0.307692  0.000000      8.000000
  0.461538  0.307692  0.000000      8.000000
  0.384615  0.384615  0.000000      4.000000
  0.461538  0.384615  0.000000      8.000000
  0.461538  0.461538  0.000000      4.000000
  0.000000  0.000000  0.250000      2.000000
  0.076923  0.000000  0.250000      8.000000
  0.153846  0.000000  0.250000      8.000000
  0.230769  0.000000  0.250000      8.000000
  0.307692  0.000000  0.250000      8.000000
  0.384615  0.000000  0.250000      8.000000
  0.461538  0.000000  0.250000      8.000000
  0.076923  0.076923  0.250000      8.000000
  0.153846  0.076923  0.250000     16.000000
  0.230769  0.076923  0.250000     16.000000
  0.307692  0.076923  0.250000     16.000000
  0.384615  0.076923  0.250000     16.000000
  0.461538  0.076923  0.250000     16.000000
  0.153846  0.153846  0.250000      8.000000
  0.230769  0.153846  0.250000     16.000000
  0.307692  0.153846  0.250000     16.000000
  0.384615  0.153846  0.250000     16.000000
  0.461538  0.153846  0.250000     16.000000
  0.230769  0.230769  0.250000      8.000000
  0.307692  0.230769  0.250000     16.000000
  0.384615  0.230769  0.250000     16.000000
  0.461538  0.230769  0.250000     16.000000
  0.307692  0.307692  0.250000      8.000000
  0.384615  0.307692  0.250000     16.000000
  0.461538  0.307692  0.250000     16.000000
  0.384615  0.384615  0.250000      8.000000
  0.461538  0.384615  0.250000     16.000000
  0.461538  0.461538  0.250000      8.000000
  0.000000  0.000000  0.500000      1.000000
  0.076923  0.000000  0.500000      4.000000
  0.153846  0.000000  0.500000      4.000000
  0.230769  0.000000  0.500000      4.000000
  0.307692  0.000000  0.500000      4.000000
  0.384615  0.000000  0.500000      4.000000
  0.461538  0.000000  0.500000      4.000000
  0.076923  0.076923  0.500000      4.000000
  0.153846  0.076923  0.500000      8.000000
  0.230769  0.076923  0.500000      8.000000
  0.307692  0.076923  0.500000      8.000000
  0.384615  0.076923  0.500000      8.000000
  0.461538  0.076923  0.500000      8.000000
  0.153846  0.153846  0.500000      4.000000
  0.230769  0.153846  0.500000      8.000000
  0.307692  0.153846  0.500000      8.000000
  0.384615  0.153846  0.500000      8.000000
  0.461538  0.153846  0.500000      8.000000
  0.230769  0.230769  0.500000      4.000000
  0.307692  0.230769  0.500000      8.000000
  0.384615  0.230769  0.500000      8.000000
  0.461538  0.230769  0.500000      8.000000
  0.307692  0.307692  0.500000      4.000000
  0.384615  0.307692  0.500000      8.000000
  0.461538  0.307692  0.500000      8.000000
  0.384615  0.384615  0.500000      4.000000
  0.461538  0.384615  0.500000      8.000000
  0.461538  0.461538  0.500000      4.000000
 
 Following cartesian coordinates:
            Coordinates               Weight
  0.000000  0.000000  0.000000      1.000000
  0.020558  0.000000  0.000000      4.000000
  0.041115  0.000000  0.000000      4.000000
  0.061673  0.000000  0.000000      4.000000
  0.082231  0.000000  0.000000      4.000000
  0.102789  0.000000  0.000000      4.000000
  0.123346  0.000000  0.000000      4.000000
  0.020558  0.020558  0.000000      4.000000
  0.041115  0.020558  0.000000      8.000000
  0.061673  0.020558  0.000000      8.000000
  0.082231  0.020558  0.000000      8.000000
  0.102789  0.020558  0.000000      8.000000
  0.123346  0.020558  0.000000      8.000000
  0.041115  0.041115  0.000000      4.000000
  0.061673  0.041115  0.000000      8.000000
  0.082231  0.041115  0.000000      8.000000
  0.102789  0.041115  0.000000      8.000000
  0.123346  0.041115  0.000000      8.000000
  0.061673  0.061673  0.000000      4.000000
  0.082231  0.061673  0.000000      8.000000
  0.102789  0.061673  0.000000      8.000000
  0.123346  0.061673  0.000000      8.000000
  0.082231  0.082231  0.000000      4.000000
  0.102789  0.082231  0.000000      8.000000
  0.123346  0.082231  0.000000      8.000000
  0.102789  0.102789  0.000000      4.000000
  0.123346  0.102789  0.000000      8.000000
  0.123346  0.123346  0.000000      4.000000
  0.000000  0.000000  0.021877      2.000000
  0.020558  0.000000  0.021877      8.000000
  0.041115  0.000000  0.021877      8.000000
  0.061673  0.000000  0.021877      8.000000
  0.082231  0.000000  0.021877      8.000000
  0.102789  0.000000  0.021877      8.000000
  0.123346  0.000000  0.021877      8.000000
  0.020558  0.020558  0.021877      8.000000
  0.041115  0.020558  0.021877     16.000000
  0.061673  0.020558  0.021877     16.000000
  0.082231  0.020558  0.021877     16.000000
  0.102789  0.020558  0.021877     16.000000
  0.123346  0.020558  0.021877     16.000000
  0.041115  0.041115  0.021877      8.000000
  0.061673  0.041115  0.021877     16.000000
  0.082231  0.041115  0.021877     16.000000
  0.102789  0.041115  0.021877     16.000000
  0.123346  0.041115  0.021877     16.000000
  0.061673  0.061673  0.021877      8.000000
  0.082231  0.061673  0.021877     16.000000
  0.102789  0.061673  0.021877     16.000000
  0.123346  0.061673  0.021877     16.000000
  0.082231  0.082231  0.021877      8.000000
  0.102789  0.082231  0.021877     16.000000
  0.123346  0.082231  0.021877     16.000000
  0.102789  0.102789  0.021877      8.000000
  0.123346  0.102789  0.021877     16.000000
  0.123346  0.123346  0.021877      8.000000
  0.000000  0.000000  0.043753      1.000000
  0.020558  0.000000  0.043753      4.000000
  0.041115  0.000000  0.043753      4.000000
  0.061673  0.000000  0.043753      4.000000
  0.082231  0.000000  0.043753      4.000000
  0.102789  0.000000  0.043753      4.000000
  0.123346  0.000000  0.043753      4.000000
  0.020558  0.020558  0.043753      4.000000
  0.041115  0.020558  0.043753      8.000000
  0.061673  0.020558  0.043753      8.000000
  0.082231  0.020558  0.043753      8.000000
  0.102789  0.020558  0.043753      8.000000
  0.123346  0.020558  0.043753      8.000000
  0.041115  0.041115  0.043753      4.000000
  0.061673  0.041115  0.043753      8.000000
  0.082231  0.041115  0.043753      8.000000
  0.102789  0.041115  0.043753      8.000000
  0.123346  0.041115  0.043753      8.000000
  0.061673  0.061673  0.043753      4.000000
  0.082231  0.061673  0.043753      8.000000
  0.102789  0.061673  0.043753      8.000000
  0.123346  0.061673  0.043753      8.000000
  0.082231  0.082231  0.043753      4.000000
  0.102789  0.082231  0.043753      8.000000
  0.123346  0.082231  0.043753      8.000000
  0.102789  0.102789  0.043753      4.000000
  0.123346  0.102789  0.043753      8.000000
  0.123346  0.123346  0.043753      4.000000
 


--------------------------------------------------------------------------------------------------------




 Dimension of arrays:
   k-points           NKPTS =     84   k-points in BZ     NKDIM =     84   number of bands    NBANDS=     96
   number of dos      NEDOS =    301   number of ions     NIONS =     12
   non local maximal  LDIM  =      6   non local SUM 2l+1 LMDIM =     18
   total plane-waves  NPLWV =  70560
   max r-space proj   IRMAX =      1   max aug-charges    IRDMAX=  26907
   dimension x,y,z NGX =    28 NGY =   28 NGZ =   90
   dimension x,y,z NGXF=    56 NGYF=   56 NGZF=  180
   support grid    NGXF=    56 NGYF=   56 NGZF=  180
   ions per type =               9   3
   NGX,Y,Z   is equivalent  to a cutoff of  12.44, 12.44, 13.09 a.u.
   NGXF,Y,Z  is equivalent  to a cutoff of  24.88, 24.88, 26.19 a.u.

 SYSTEM =  unknown system                          
 POSCAR =  Fe9 Pt3                                 

 Startparameter for this run:
   NWRITE =      2    write-flag & timer
   PREC   = accura    normal or accurate (medium, high low for compatibility)
   ISTART =      0    job   : 0-new  1-cont  2-samecut
   ICHARG =      2    charge: 1-file 2-atom 10-const
   ISPIN  =      2    spin polarized calculation?
   LNONCOLLINEAR =      F non collinear calculations
   LSORBIT =      F    spin-orbit coupling
   INIWAV =      1    electr: 0-lowe 1-rand  2-diag
   LASPH  =      F    aspherical Exc in radial PAW
 Electronic Relaxation 1
   ENCUT  =  520.0 eV  38.22 Ry    6.18 a.u.   6.96  6.96 21.25*2*pi/ulx,y,z
   ENINI  =  520.0     initial cutoff
   ENAUG  =  578.3 eV  augmentation charge cutoff
   NELM   =    200;   NELMIN=  2; NELMDL=  0     # of ELM steps 
   EDIFF  = 0.1E-05   stopping-criterion for ELM
   LREAL  =      F    real-space projection
   NLSPLINE    = F    spline interpolate recip. space projectors
   LCOMPAT=      F    compatible to vasp.4.4
   GGA_COMPAT  = T    GGA compatible to vasp.4.4-vasp.4.6
   LMAXPAW     = -100 max onsite density
   LMAXMIX     =    2 max onsite mixed and CHGCAR
   VOSKOWN=      0    Vosko Wilk Nusair interpolation
   ROPT   =    0.00000   0.00000
 Ionic relaxation
   EDIFFG = -.1E-01   stopping-criterion for IOM
   NSW    =    100    number of steps for IOM
   NBLOCK =      1;   KBLOCK =    100    inner block; outer block 
   IBRION =      2    ionic relax: 0-MD 1-quasi-New 2-CG
   NFREE  =      1    steps in history (QN), initial steepest desc. (CG)
   ISIF   =      4    stress and relaxation
   IWAVPR =     11    prediction:  0-non 1-charg 2-wave 3-comb
   ISYM   =      2    0-nonsym 1-usesym 2-fastsym
   LCORR  =      T    Harris-Foulkes like correction to forces

   POTIM  = 0.5000    time-step for ionic-motion
   TEIN   =    0.0    initial temperature
   TEBEG  =    0.0;   TEEND  =   0.0 temperature during run
   SMASS  =  -3.00    Nose mass-parameter (am)
   estimated Nose-frequenzy (Omega)   =  0.10E-29 period in steps = 0.13E+47 mass=  -0.320E-27a.u.
   SCALEE = 1.0000    scale energy and forces
   NPACO  =    256;   APACO  = 10.0  distance and # of slots for P.C.
   PSTRESS=    0.0 pullay stress

  Mass of Ions in am
   POMASS =  55.85195.08
  Ionic Valenz
   ZVAL   =  14.00 10.00
  Atomic Wigner-Seitz radii
   RWIGS  =  -1.00 -1.00
  virtual crystal weights 
   VCA    =   1.00  1.00
   NELECT =     156.0000    total number of electrons
   NUPDOWN=      -1.0000    fix difference up-down

 DOS related values:
   EMIN   =  10.00;   EMAX   =-10.00  energy-range for DOS
   EFERMI =   0.00;   METHOD = LEGACY      
   ISMEAR =     1;   SIGMA  =   0.20  broadening in eV -4-tet -1-fermi 0-gaus

 Electronic relaxation 2 (details)
   IALGO  =     58    algorithm
   LDIAG  =      T    sub-space diagonalisation (order eigenvalues)
   LSUBROT=      F    optimize rotation matrix (better conditioning)
   TURBO    =      0    0=normal 1=particle mesh
   IRESTART =      0    0=no restart 2=restart with 2 vectors
   NREBOOT  =      0    no. of reboots
   NMIN     =      0    reboot dimension
   EREF     =   0.00    reference energy to select bands
   IMIX   =      4    mixing-type and parameters
     AMIX     =   0.40;   BMIX     =  1.00
     AMIX_MAG =   1.60;   BMIX_MAG =  1.00
     AMIN     =   0.10
     WC   =   100.;   INIMIX=   1;  MIXPRE=   1;  MAXMIX= -45

 Intra band minimization:
   WEIMIN = 0.0010     energy-eigenvalue tresh-hold
   EBREAK =  0.26E-08  absolut break condition
   DEPER  =   0.30     relativ break condition  

   TIME   =   0.40     timestep for ELM

  volume/ion in A,a.u.               =      13.33        89.98
  Fermi-wavevector in a.u.,A,eV,Ry     =   1.623341  3.067669 35.854553  2.635235
  Thomas-Fermi vector in A             =   2.716807
 
 Write flags
   LWAVE        =      F    write WAVECAR
   LDOWNSAMPLE  =      F    k-point downsampling of WAVECAR
   LCHARG       =      T    write CHGCAR
   LVTOT        =      F    write LOCPOT, total local potential
   LVHAR        =      F    write LOCPOT, Hartree potential only
   WRT_POTENTIAL= false  ! write potential to hdf5 file
   LELF         =      F    write electronic localiz. function (ELF)
   LORBIT       =     11    0 simple, 1 ext, 2 COOP (PROOUT), +10 PAW based schemes


 Dipole corrections
   LMONO      =      F    monopole corrections only (constant potential shift)
   LDIPOL     =      F    correct potential (dipole corrections)
   IDIPOL     =      0    1-x, 2-y, 3-z, 4-all directions 
   EPSILON    =  1.0000000 bulk dielectric constant
   LVACPOTAV  =      F  vacuum potentials using an averaging scheme for the charge density
   VACPOTFLAT =  0.1000000 required flatness to determine vacuum potential
 Exchange correlation treatment:
   GGA     = PE    functional components
   XC_C    = 1    coefficients multiplying the functional components
   LIBXC   =     F    Libxc                    
   VOSKOWN =     0    Vosko Wilk Nusair interpolation
   LHFCALC =     F    Hartree Fock is set to
   LHFONE  =     F    Hartree Fock one center treatment
   AEXX    =    0.0000 exact exchange contribution

 Parameters of functionals:
   PE:
     No parameter
 
 Van der Waals corrections
   IVDW    =     0    specifies the selected vdW correction

 Linear response parameters
   LEPSILON=     F    determine dielectric tensor
   LRPA    =     F    only Hartree local field effects (RPA)
   LNABLA  =     F    use nabla operator in PAW spheres
   LVEL    =     F    velocity operator in full k-point grid
   CSHIFT  =0.1000    complex shift for real part using Kramers Kronig
   OMEGAMAX=  -1.0    maximum frequency
   DEG_THRESHOLD= 0.2000000E-02 threshold for treating states as degnerate
   RTIME   =   -0.100 relaxation time in fs
  (WPLASMAI=    0.000 imaginary part of plasma frequency in eV, 0.658/RTIME)
   DFIELD  = 0.0000000 0.0000000 0.0000000 field for delta impulse in time
 
  Optional k-point grid parameters
   LKPOINTS_OPT  =     F    use optional k-point grid
   KPOINTS_OPT_MODE=     1    mode for optional k-point grid
 
 Orbital magnetization related:
   ORBITALMAG=     F  switch on orbital magnetization
   LCHIMAG   =     F  perturbation theory with respect to B field
   DQ        =  0.001000  dq finite difference perturbation B field
   LLRAUG    =     F  two centre corrections for induced B field
   LBONE     =     F  B-component reconstruction in AE one-centre
   LVGVCALC  =     T  calculate vGv susceptibility
   LVGVAPPL  =     F  apply vGv susceptibility instead of pGv for G=0

 Random number generation:
   RANDOM_GENERATOR = DEFAULT
   PCG_SEED         = not used


--------------------------------------------------------------------------------------------------------


 conjugate gradient relaxation of ions
 charge density and potential will be updated during run
 spin polarized calculation
 Conjugate gradient for all bands (Freysoldt, et al. PRB 79, 241103 (2009))
 preconditioned conjugated gradient                                        
 perform sub-space diagonalisation
    before iterative eigenvector-optimisation
 modified Broyden-mixing scheme, WC =      100.0
 initial mixing is a Kerker type mixing with AMIX =  0.4000 and BMIX =      1.0000
 Hartree-type preconditioning will be used
 using additional bands           18
 reciprocal scheme for non local part
 use partial core corrections
 no Harris-corrections to forces 
 use gradient corrections 
 use of overlap-Matrix (Vanderbilt PP)
 Methfessel and Paxton  Order N= 1 SIGMA  =   0.20


--------------------------------------------------------------------------------------------------------


  energy-cutoff  :      520.00
  volume of cell :      160.00
      direct lattice vectors                 reciprocal lattice vectors
     3.741806788  0.000000000  0.000000000     0.267250571  0.000000000  0.000000000
     0.000000000  3.741806788  0.000000000     0.000000000  0.267250571  0.000000000
     0.000000000  0.000000000 11.427658818     0.000000000  0.000000000  0.087506988

  length of vectors
     3.741806788  3.741806788 11.427658818     0.267250571  0.267250571  0.087506988


 
 k-points in units of 2pi/SCALE and weight: pymatgen with grid density = 8800 / numb
   0.00000000  0.00000000  0.00000000       0.001
   0.02055774  0.00000000  0.00000000       0.006
   0.04111547  0.00000000  0.00000000       0.006
   0.06167321  0.00000000  0.00000000       0.006
   0.08223094  0.00000000  0.00000000       0.006
   0.10278868  0.00000000  0.00000000       0.006
   0.12334642  0.00000000  0.00000000       0.006
   0.02055774  0.02055774  0.00000000       0.006
   0.04111547  0.02055774  0.00000000       0.012
   0.06167321  0.02055774  0.00000000       0.012
   0.08223094  0.02055774  0.00000000       0.012
   0.10278868  0.02055774  0.00000000       0.012
   0.12334642  0.02055774  0.00000000       0.012
   0.04111547  0.04111547  0.00000000       0.006
   0.06167321  0.04111547  0.00000000       0.012
   0.08223094  0.04111547  0.00000000       0.012
   0.10278868  0.04111547  0.00000000       0.012
   0.12334642  0.04111547  0.00000000       0.012
   0.06167321  0.06167321  0.00000000       0.006
   0.08223094  0.06167321  0.00000000       0.012
   0.10278868  0.06167321  0.00000000       0.012
   0.12334642  0.06167321  0.00000000       0.012
   0.08223094  0.08223094  0.00000000       0.006
   0.10278868  0.08223094  0.00000000       0.012
   0.12334642  0.08223094  0.00000000       0.012
   0.10278868  0.10278868  0.00000000       0.006
   0.12334642  0.10278868  0.00000000       0.012
   0.12334642  0.12334642  0.00000000       0.006
   0.00000000  0.00000000  0.02187675       0.003
   0.02055774  0.00000000  0.02187675       0.012
   0.04111547  0.00000000  0.02187675       0.012
   0.06167321  0.00000000  0.02187675       0.012
   0.08223094  0.00000000  0.02187675       0.012
   0.10278868  0.00000000  0.02187675       0.012
   0.12334642  0.00000000  0.02187675       0.012
   0.02055774  0.02055774  0.02187675       0.012
   0.04111547  0.02055774  0.02187675       0.024
   0.06167321  0.02055774  0.02187675       0.024
   0.08223094  0.02055774  0.02187675       0.024
   0.10278868  0.02055774  0.02187675       0.024
   0.12334642  0.02055774  0.02187675       0.024
   0.04111547  0.04111547  0.02187675       0.012
   0.06167321  0.04111547  0.02187675       0.024
   0.08223094  0.04111547  0.02187675       0.024
   0.10278868  0.04111547  0.02187675       0.024
   0.12334642  0.04111547  0.02187675       0.024
   0.06167321  0.06167321  0.02187675       0.012
   0.08223094  0.06167321  0.02187675       0.024
   0.10278868  0.06167321  0.02187675       0.024
   0.12334642  0.06167321  0.02187675       0.024
   0.08223094  0.08223094  0.02187675       0.012
   0.10278868  0.08223094  0.02187675       0.024
   0.12334642  0.08223094  0.02187675       0.024
   0.10278868  0.10278868  0.02187675       0.012
   0.12334642  0.10278868  0.02187675       0.024
   0.12334642  0.12334642  0.02187675       0.012
   0.00000000  0.00000000  0.04375349       0.001
   0.02055774  0.00000000  0.04375349       0.006
   0.04111547  0.00000000  0.04375349       0.006
   0.06167321  0.00000000  0.04375349       0.006
   0.08223094  0.00000000  0.04375349       0.006
   0.10278868  0.00000000  0.04375349       0.006
   0.12334642  0.00000000  0.04375349       0.006
   0.02055774  0.02055774  0.04375349       0.006
   0.04111547  0.02055774  0.04375349       0.012
   0.06167321  0.02055774  0.04375349       0.012
   0.08223094  0.02055774  0.04375349       0.012
   0.10278868  0.02055774  0.04375349       0.012
   0.12334642  0.02055774  0.04375349       0.012
   0.04111547  0.04111547  0.04375349       0.006
   0.06167321  0.04111547  0.04375349       0.012
   0.08223094  0.04111547  0.04375349       0.012
   0.10278868  0.04111547  0.04375349       0.012
   0.12334642  0.04111547  0.04375349       0.012
   0.06167321  0.06167321  0.04375349       0.006
   0.08223094  0.06167321  0.04375349       0.012
   0.10278868  0.06167321  0.04375349       0.012
   0.12334642  0.06167321  0.04375349       0.012
   0.08223094  0.08223094  0.04375349       0.006
   0.10278868  0.08223094  0.04375349       0.012
   0.12334642  0.08223094  0.04375349       0.012
   0.10278868  0.10278868  0.04375349       0.006
   0.12334642  0.10278868  0.04375349       0.012
   0.12334642  0.12334642  0.04375349       0.006
 
 k-points in reciprocal lattice and weights: pymatgen with grid density = 8800 / numb
   0.00000000  0.00000000  0.00000000       0.001
   0.07692308  0.00000000  0.00000000       0.006
   0.15384615  0.00000000  0.00000000       0.006
   0.23076923  0.00000000  0.00000000       0.006
   0.30769231  0.00000000  0.00000000       0.006
   0.38461538  0.00000000  0.00000000       0.006
   0.46153846  0.00000000  0.00000000       0.006
   0.07692308  0.07692308  0.00000000       0.006
   0.15384615  0.07692308  0.00000000       0.012
   0.23076923  0.07692308  0.00000000       0.012
   0.30769231  0.07692308  0.00000000       0.012
   0.38461538  0.07692308  0.00000000       0.012
   0.46153846  0.07692308  0.00000000       0.012
   0.15384615  0.15384615  0.00000000       0.006
   0.23076923  0.15384615  0.00000000       0.012
   0.30769231  0.15384615  0.00000000       0.012
   0.38461538  0.15384615  0.00000000       0.012
   0.46153846  0.15384615  0.00000000       0.012
   0.23076923  0.23076923  0.00000000       0.006
   0.30769231  0.23076923  0.00000000       0.012
   0.38461538  0.23076923  0.00000000       0.012
   0.46153846  0.23076923  0.00000000       0.012
   0.30769231  0.30769231  0.00000000       0.006
   0.38461538  0.30769231  0.00000000       0.012
   0.46153846  0.30769231  0.00000000       0.012
   0.38461538  0.38461538  0.00000000       0.006
   0.46153846  0.38461538  0.00000000       0.012
   0.46153846  0.46153846  0.00000000       0.006
   0.00000000  0.00000000  0.25000000       0.003
   0.07692308  0.00000000  0.25000000       0.012
   0.15384615  0.00000000  0.25000000       0.012
   0.23076923  0.00000000  0.25000000       0.012
   0.30769231  0.00000000  0.25000000       0.012
   0.38461538  0.00000000  0.25000000       0.012
   0.46153846  0.00000000  0.25000000       0.012
   0.07692308  0.07692308  0.25000000       0.012
   0.15384615  0.07692308  0.25000000       0.024
   0.23076923  0.07692308  0.25000000       0.024
   0.30769231  0.07692308  0.25000000       0.024
   0.38461538  0.07692308  0.25000000       0.024
   0.46153846  0.07692308  0.25000000       0.024
   0.15384615  0.15384615  0.25000000       0.012
   0.23076923  0.15384615  0.25000000       0.024
   0.30769231  0.15384615  0.25000000       0.024
   0.38461538  0.15384615  0.25000000       0.024
   0.46153846  0.15384615  0.25000000       0.024
   0.23076923  0.23076923  0.25000000       0.012
   0.30769231  0.23076923  0.25000000       0.024
   0.38461538  0.23076923  0.25000000       0.024
   0.46153846  0.23076923  0.25000000       0.024
   0.30769231  0.30769231  0.25000000       0.012
   0.38461538  0.30769231  0.25000000       0.024
   0.46153846  0.30769231  0.25000000       0.024
   0.38461538  0.38461538  0.25000000       0.012
   0.46153846  0.38461538  0.25000000       0.024
   0.46153846  0.46153846  0.25000000       0.012
   0.00000000  0.00000000  0.50000000       0.001
   0.07692308  0.00000000  0.50000000       0.006
   0.15384615  0.00000000  0.50000000       0.006
   0.23076923  0.00000000  0.50000000       0.006
   0.30769231  0.00000000  0.50000000       0.006
   0.38461538  0.00000000  0.50000000       0.006
   0.46153846  0.00000000  0.50000000       0.006
   0.07692308  0.07692308  0.50000000       0.006
   0.15384615  0.07692308  0.50000000       0.012
   0.23076923  0.07692308  0.50000000       0.012
   0.30769231  0.07692308  0.50000000       0.012
   0.38461538  0.07692308  0.50000000       0.012
   0.46153846  0.07692308  0.50000000       0.012
   0.15384615  0.15384615  0.50000000       0.006
   0.23076923  0.15384615  0.50000000       0.012
   0.30769231  0.15384615  0.50000000       0.012
   0.38461538  0.15384615  0.50000000       0.012
   0.46153846  0.15384615  0.50000000       0.012
   0.23076923  0.23076923  0.50000000       0.006
   0.30769231  0.23076923  0.50000000       0.012
   0.38461538  0.23076923  0.50000000       0.012
   0.46153846  0.23076923  0.50000000       0.012
   0.30769231  0.30769231  0.50000000       0.006
   0.38461538  0.30769231  0.50000000       0.012
   0.46153846  0.30769231  0.50000000       0.012
   0.38461538  0.38461538  0.50000000       0.006
   0.46153846  0.38461538  0.50000000       0.012
   0.46153846  0.46153846  0.50000000       0.006
 
 position of ions in fractional coordinates (direct lattice) 
   0.00000000  0.50000000  0.16667399
   0.00000000  0.50000000  0.49958484
   0.00000000  0.50000000  0.83373127
   0.50000000  0.50000000  0.00811856
   0.50000000  0.50000000  0.32526252
   0.50000000  0.50000000  0.66664965
   0.50000000  0.00000000  0.16667399
   0.50000000  0.00000000  0.49958484
   0.50000000  0.00000000  0.83373127
   0.00000000  0.00000000  0.99730970
   0.00000000  0.00000000  0.33597711
   0.00000000  0.00000000  0.66670227
 
 position of ions in cartesian coordinates  (Angst):
   0.00000000  1.87090339  1.90469346
   0.00000000  1.87090339  5.70908505
   0.00000000  1.87090339  9.52759649
   1.87090339  1.87090339  0.09277616
   1.87090339  1.87090339  3.71698915
   1.87090339  1.87090339  7.61824475
   1.87090339  0.00000000  1.90469346
   1.87090339  0.00000000  5.70908505
   1.87090339  0.00000000  9.52759649
   0.00000000  0.00000000 11.39691494
   0.00000000  0.00000000  3.83943180
   0.00000000  0.00000000  7.61884610
 


--------------------------------------------------------------------------------------------------------


 k-point     1 :   0.0000 0.0000 0.0000  plane waves:    4283
 k-point     2 :   0.0769 0.0000 0.0000  plane waves:    4286
 k-point     3 :   0.1538 0.0000 0.0000  plane waves:    4282
 k-point     4 :   0.2308 0.0000 0.0000  plane waves:    4300
 k-point     5 :   0.3077 0.0000 0.0000  plane waves:    4278
 k-point     6 :   0.3846 0.0000 0.0000  plane waves:    4284
 k-point     7 :   0.4615 0.0000 0.0000  plane waves:    4298
 k-point     8 :   0.0769 0.0769 0.0000  plane waves:    4297
 k-point     9 :   0.1538 0.0769 0.0000  plane waves:    4292
 k-point    10 :   0.2308 0.0769 0.0000  plane waves:    4294
 k-point    11 :   0.3077 0.0769 0.0000  plane waves:    4295
 k-point    12 :   0.3846 0.0769 0.0000  plane waves:    4305
 k-point    13 :   0.4615 0.0769 0.0000  plane waves:    4316
 k-point    14 :   0.1538 0.1538 0.0000  plane waves:    4306
 k-point    15 :   0.2308 0.1538 0.0000  plane waves:    4295
 k-point    16 :   0.3077 0.1538 0.0000  plane waves:    4308
 k-point    17 :   0.3846 0.1538 0.0000  plane waves:    4315
 k-point    18 :   0.4615 0.1538 0.0000  plane waves:    4324
 k-point    19 :   0.2308 0.2308 0.0000  plane waves:    4294
 k-point    20 :   0.3077 0.2308 0.0000  plane waves:    4311
 k-point    21 :   0.3846 0.2308 0.0000  plane waves:    4318
 k-point    22 :   0.4615 0.2308 0.0000  plane waves:    4323
 k-point    23 :   0.3077 0.3077 0.0000  plane waves:    4328
 k-point    24 :   0.3846 0.3077 0.0000  plane waves:    4336
 k-point    25 :   0.4615 0.3077 0.0000  plane waves:    4316
 k-point    26 :   0.3846 0.3846 0.0000  plane waves:    4330
 k-point    27 :   0.4615 0.3846 0.0000  plane waves:    4319
 k-point    28 :   0.4615 0.4615 0.0000  plane waves:    4322
 k-point    29 :   0.0000 0.0000 0.2500  plane waves:    4290
 k-point    30 :   0.0769 0.0000 0.2500  plane waves:    4276
 k-point    31 :   0.1538 0.0000 0.2500  plane waves:    4285
 k-point    32 :   0.2308 0.0000 0.2500  plane waves:    4292
 k-point    33 :   0.3077 0.0000 0.2500  plane waves:    4286
 k-point    34 :   0.3846 0.0000 0.2500  plane waves:    4300
 k-point    35 :   0.4615 0.0000 0.2500  plane waves:    4309
 k-point    36 :   0.0769 0.0769 0.2500  plane waves:    4276
 k-point    37 :   0.1538 0.0769 0.2500  plane waves:    4290
 k-point    38 :   0.2308 0.0769 0.2500  plane waves:    4295
 k-point    39 :   0.3077 0.0769 0.2500  plane waves:    4295
 k-point    40 :   0.3846 0.0769 0.2500  plane waves:    4306
 k-point    41 :   0.4615 0.0769 0.2500  plane waves:    4317
 k-point    42 :   0.1538 0.1538 0.2500  plane waves:    4302
 k-point    43 :   0.2308 0.1538 0.2500  plane waves:    4300
 k-point    44 :   0.3077 0.1538 0.2500  plane waves:    4300
 k-point    45 :   0.3846 0.1538 0.2500  plane waves:    4314
 k-point    46 :   0.4615 0.1538 0.2500  plane waves:    4324
 k-point    47 :   0.2308 0.2308 0.2500  plane waves:    4315
 k-point    48 :   0.3077 0.2308 0.2500  plane waves:    4314
 k-point    49 :   0.3846 0.2308 0.2500  plane waves:    4324
 k-point    50 :   0.4615 0.2308 0.2500  plane waves:    4326
 k-point    51 :   0.3077 0.3077 0.2500  plane waves:    4328
 k-point    52 :   0.3846 0.3077 0.2500  plane waves:    4322
 k-point    53 :   0.4615 0.3077 0.2500  plane waves:    4325
 k-point    54 :   0.3846 0.3846 0.2500  plane waves:    4330
 k-point    55 :   0.4615 0.3846 0.2500  plane waves:    4317
 k-point    56 :   0.4615 0.4615 0.2500  plane waves:    4308
 k-point    57 :   0.0000 0.0000 0.5000  plane waves:    4250
 k-point    58 :   0.0769 0.0000 0.5000  plane waves:    4266
 k-point    59 :   0.1538 0.0000 0.5000  plane waves:    4274
 k-point    60 :   0.2308 0.0000 0.5000  plane waves:    4284
 k-point    61 :   0.3077 0.0000 0.5000  plane waves:    4290
 k-point    62 :   0.3846 0.0000 0.5000  plane waves:    4316
 k-point    63 :   0.4615 0.0000 0.5000  plane waves:    4322
 k-point    64 :   0.0769 0.0769 0.5000  plane waves:    4266
 k-point    65 :   0.1538 0.0769 0.5000  plane waves:    4294
 k-point    66 :   0.2308 0.0769 0.5000  plane waves:    4292
 k-point    67 :   0.3077 0.0769 0.5000  plane waves:    4290
 k-point    68 :   0.3846 0.0769 0.5000  plane waves:    4312
 k-point    69 :   0.4615 0.0769 0.5000  plane waves:    4314
 k-point    70 :   0.1538 0.1538 0.5000  plane waves:    4298
 k-point    71 :   0.2308 0.1538 0.5000  plane waves:    4300
 k-point    72 :   0.3077 0.1538 0.5000  plane waves:    4312
 k-point    73 :   0.3846 0.1538 0.5000  plane waves:    4310
 k-point    74 :   0.4615 0.1538 0.5000  plane waves:    4322
 k-point    75 :   0.2308 0.2308 0.5000  plane waves:    4312
 k-point    76 :   0.3077 0.2308 0.5000  plane waves:    4328
 k-point    77 :   0.3846 0.2308 0.5000  plane waves:    4310
 k-point    78 :   0.4615 0.2308 0.5000  plane waves:    4326
 k-point    79 :   0.3077 0.3077 0.5000  plane waves:    4350
 k-point    80 :   0.3846 0.3077 0.5000  plane waves:    4330
 k-point    81 :   0.4615 0.3077 0.5000  plane waves:    4330
 k-point    82 :   0.3846 0.3846 0.5000  plane waves:    4318
 k-point    83 :   0.4615 0.3846 0.5000  plane waves:    4316
 k-point    84 :   0.4615 0.4615 0.5000  plane waves:    4306

 maximum and minimum number of plane-waves per node :      4350     4250

 maximum number of plane-waves:      4350
 maximum index in each direction: 
   IXMAX=    6   IYMAX=    6   IZMAX=   21
   IXMIN=   -7   IYMIN=   -7   IZMIN=  -21


 serial   3D FFT for wavefunctions
 parallel 3D FFT for charge:
    minimum data exchange during FFTs selected (reduces bandwidth)


 total amount of memory used by VASP MPI-rank0   255444. kBytes
=======================================================================

   base      :      30000. kBytes
   nonl-proj :     106119. kBytes
   fftplans  :        955. kBytes
   grid      :       7297. kBytes
   one-center:        373. kBytes
   wavefun   :     110700. kBytes
 
     INWAV:  cpu time      0.0000: real time      0.0000
 Broyden mixing: mesh for mixing (old mesh)
   NGX = 13   NGY = 13   NGZ = 43
  (NGX  = 56   NGY  = 56   NGZ  =180)
  gives a total of   7267 points

 initial charge density was supplied:
 charge density of overlapping atoms calculated
 number of electron     156.0000000 magnetization       2.7940000
 charge density for first step will be calculated from the start-wavefunctions


--------------------------------------------------------------------------------------------------------


 Maximum index for augmentation-charges         1076 (set IRDMAX)


--------------------------------------------------------------------------------------------------------


 First call to EWALD:  gamma=   0.326
 Maximum number of real-space cells 4x 4x 2
 Maximum number of reciprocal cells 2x 2x 5

    FEWALD:  cpu time      0.0020: real time      0.0020


--------------------------------------- Ionic step        1  -------------------------------------------




--------------------------------------- Iteration      1(   1)  ---------------------------------------


    POTLOK:  cpu time      0.0356: real time      0.0364
    SETDIJ:  cpu time      0.0158: real time      0.0162
    TRIAL :  cpu time      4.5263: real time      4.5635
    CORREC:  cpu time      0.0036: real time      0.0036
    --------------------------------------------
      LOOP:  cpu time      4.6479: real time      4.7099

 eigenvalue-minimisations  : 32256
 total energy-change (2. order) : 0.1734726E+04  (-0.9383250E+04)
 number of electron     156.0000000 magnetization       2.7940000
 augmentation part      156.0000000 magnetization       2.7940000

 Free energy of the ion-electron system (eV)
  ---------------------------------------------------
  alpha Z        PSCENC =      1063.68830978
  Ewald energy   TEWEN  =    -17930.18894347
  -Hartree energ DENC   =     -6078.98400781
  -exchange      EXHF   =         0.00000000
  -V(xc)+E(xc)   XCENC  =       655.90157431
  PAW double counting   =     20094.10295027   -20818.04087081
  entropy T*S    EENTRO =        -0.00253546
  eigenvalues    EBANDS =       444.14634928
  atomic energy  EATOM  =     24304.10294433
  ---------------------------------------------------
  free energy    TOTEN  =      1734.72577040 eV

  energy without entropy =     1734.72830587  energy(sigma->0) =     1734.72661556


--------------------------------------------------------------------------------------------------------




--------------------------------------- Iteration      1(   2)  ---------------------------------------


    TRIAL :  cpu time      4.5287: real time      4.5612
    CORREC:  cpu time      0.0024: real time      0.0024
    --------------------------------------------
      LOOP:  cpu time      4.5424: real time      4.5849

 eigenvalue-minimisations  : 32480
 total energy-change (2. order) :-0.1724350E+04  (-0.1694502E+04)
 number of electron     156.0000000 magnetization       2.7940000
 augmentation part      156.0000000 magnetization       2.7940000

 Free energy of the ion-electron system (eV)
  ---------------------------------------------------
  alpha Z        PSCENC =      1063.68830978
  Ewald energy   TEWEN  =    -17930.18894347
  -Hartree energ DENC   =     -6078.98400781
  -exchange      EXHF   =         0.00000000
  -V(xc)+E(xc)   XCENC  =       655.90157431
  PAW double counting   =     20094.10295027   -20818.04087081
  entropy T*S    EENTRO =        -0.00051977
  eigenvalues    EBANDS =     -1280.20610236
  atomic energy  EATOM  =     24304.10294433
  ---------------------------------------------------
  free energy    TOTEN  =        10.37533446 eV

  energy without entropy =       10.37585423  energy(sigma->0) =       10.37550772


--------------------------------------------------------------------------------------------------------




--------------------------------------- Iteration      1(   3)  ---------------------------------------


    TRIAL :  cpu time      5.8689: real time      5.9101
    CORREC:  cpu time      0.0030: real time      2.1355
    --------------------------------------------
      LOOP:  cpu time      5.8813: real time      8.0680

 eigenvalue-minimisations  : 41344
 total energy-change (2. order) :-0.1128317E+03  (-0.1115621E+03)
 number of electron     156.0000000 magnetization       2.7940000
 augmentation part      156.0000000 magnetization       2.7940000

 Free energy of the ion-electron system (eV)
  ---------------------------------------------------
  alpha Z        PSCENC =      1063.68830978
  Ewald energy   TEWEN  =    -17930.18894347
  -Hartree energ DENC   =     -6078.98400781
  -exchange      EXHF   =         0.00000000
  -V(xc)+E(xc)   XCENC  =       655.90157431
  PAW double counting   =     20094.10295027   -20818.04087081
  entropy T*S    EENTRO =         0.01585059
  eigenvalues    EBANDS =     -1393.05417989
  atomic energy  EATOM  =     24304.10294433
  ---------------------------------------------------
  free energy    TOTEN  =      -102.45637272 eV

  energy without entropy =     -102.47222331  energy(sigma->0) =     -102.46165625


--------------------------------------------------------------------------------------------------------




--------------------------------------- Iteration      1(   4)  ---------------------------------------


    TRIAL :  cpu time      4.5437: real time      4.5764
    CORREC:  cpu time      0.0024: real time      0.0024
    --------------------------------------------
      LOOP:  cpu time      4.5543: real time      4.6020

 eigenvalue-minimisations  : 32768
 total energy-change (2. order) :-0.2481288E+01  (-0.2478771E+01)
 number of electron     156.0000000 magnetization       2.7940000
 augmentation part      156.0000000 magnetization       2.7940000

 Free energy of the ion-electron system (eV)
  ---------------------------------------------------
  alpha Z        PSCENC =      1063.68830978
  Ewald energy   TEWEN  =    -17930.18894347
  -Hartree energ DENC   =     -6078.98400781
  -exchange      EXHF   =         0.00000000
  -V(xc)+E(xc)   XCENC  =       655.90157431
  PAW double counting   =     20094.10295027   -20818.04087081
  entropy T*S    EENTRO =         0.01590889
  eigenvalues    EBANDS =     -1395.53552669
  atomic energy  EATOM  =     24304.10294433
  ---------------------------------------------------
  free energy    TOTEN  =      -104.93766122 eV

  energy without entropy =     -104.95357010  energy(sigma->0) =     -104.94296418


--------------------------------------------------------------------------------------------------------




--------------------------------------- Iteration      1(   5)  ---------------------------------------


    TRIAL :  cpu time      5.9749: real time      6.0151
    CORREC:  cpu time      0.0025: real time      0.0025
    CHARGE:  cpu time      0.1656: real time      0.1672
    --------------------------------------------
      LOOP:  cpu time      6.1501: real time      6.2088

 eigenvalue-minimisations  : 41344
 total energy-change (2. order) :-0.5553700E-01  (-0.5552638E-01)
 number of electron     156.0000199 magnetization       2.5574304
 augmentation part       79.2536416 magnetization       1.7921723

 Free energy of the ion-electron system (eV)
  ---------------------------------------------------
  alpha Z        PSCENC =      1063.68830978
  Ewald energy   TEWEN  =    -17930.18894347
  -Hartree energ DENC   =     -6078.98400781
  -exchange      EXHF   =         0.00000000
  -V(xc)+E(xc)   XCENC  =       655.90157431
  PAW double counting   =     20094.10295027   -20818.04087081
  entropy T*S    EENTRO =         0.01585052
  eigenvalues    EBANDS =     -1395.59100533
  atomic energy  EATOM  =     24304.10294433
  ---------------------------------------------------
  free energy    TOTEN  =      -104.99319822 eV

  energy without entropy =     -105.00904874  energy(sigma->0) =     -104.99848173


--------------------------------------------------------------------------------------------------------




--------------------------------------- Iteration      1(   6)  ---------------------------------------


    POTLOK:  cpu time      0.0248: real time      0.0253
    SETDIJ:  cpu time      0.0070: real time      0.0070
    TRIAL :  cpu time      2.0563: real time      2.0761
    CORREC:  cpu time      0.8024: real time      0.8095
    CHARGE:  cpu time      0.1582: real time      0.1592
    --------------------------------------------
      LOOP:  cpu time      3.0573: real time      3.1002

 eigenvalue-minimisations  :     0
 total energy-change (2. order) : 0.5449586E+02  (-0.2277111E+02)
 number of electron     156.0000205 magnetization       2.3145524
 augmentation part       81.6061443 magnetization       1.7869633

 Free energy of the ion-electron system (eV)
  ---------------------------------------------------
  alpha Z        PSCENC =      1063.68830978
  Ewald energy   TEWEN  =    -17930.18894347
  -Hartree energ DENC   =     -4945.42328759
  -exchange      EXHF   =         0.00000000
  -V(xc)+E(xc)   XCENC  =       609.00092742
  PAW double counting   =     20814.42700393   -21476.93582222
  entropy T*S    EENTRO =         0.00818736
  eigenvalues    EBANDS =     -2489.18431937
  atomic energy  EATOM  =     24304.10294433
  ---------------------------------------------------
  free energy    TOTEN  =       -50.49733667 eV

  energy without entropy =      -50.50552403  energy(sigma->0) =      -50.50006579


--------------------------------------------------------------------------------------------------------




--------------------------------------- Iteration      1(   7)  ---------------------------------------


    POTLOK:  cpu time      0.0230: real time      0.0232
    SETDIJ:  cpu time      0.0079: real time      0.0079
    TRIAL :  cpu time      2.0290: real time      2.0491
    CORREC:  cpu time      0.7909: real time      0.7992
    CHARGE:  cpu time      0.1583: real time      0.1593
    --------------------------------------------
      LOOP:  cpu time      3.0170: real time      3.0625

 eigenvalue-minimisations  :     0
 total energy-change (2. order) :-0.2624298E+02  (-0.7939354E+01)
 number of electron     156.0000208 magnetization       2.5114938
 augmentation part       82.9094416 magnetization       1.8601175

 Free energy of the ion-electron system (eV)
  ---------------------------------------------------
  alpha Z        PSCENC =      1063.68830978
  Ewald energy   TEWEN  =    -17930.18894347
  -Hartree energ DENC   =     -5255.03462247
  -exchange      EXHF   =         0.00000000
  -V(xc)+E(xc)   XCENC  =       622.25380028
  PAW double counting   =     21180.75805423   -21900.46376525
  entropy T*S    EENTRO =         0.01231522
  eigenvalues    EBANDS =     -2161.86428413
  atomic energy  EATOM  =     24304.10294433
  ---------------------------------------------------
  free energy    TOTEN  =       -76.74031935 eV

  energy without entropy =      -76.75263457  energy(sigma->0) =      -76.74442442


--------------------------------------------------------------------------------------------------------




--------------------------------------- Iteration      1(   8)  ---------------------------------------


    POTLOK:  cpu time      0.0243: real time      0.0246
    SETDIJ:  cpu time      0.0061: real time      0.0061
    TRIAL :  cpu time      2.0163: real time      2.0367
    CORREC:  cpu time      0.9159: real time      0.9252
    CHARGE:  cpu time      0.1582: real time      0.1591
    --------------------------------------------
      LOOP:  cpu time      3.1294: real time      3.1750

 eigenvalue-minimisations  :     0
 total energy-change (2. order) :-0.9409226E+01  (-0.3830410E+01)
 number of electron     156.0000211 magnetization       2.5264451
 augmentation part       84.4337597 magnetization       1.8866704

 Free energy of the ion-electron system (eV)
  ---------------------------------------------------
  alpha Z        PSCENC =      1063.68830978
  Ewald energy   TEWEN  =    -17930.18894347
  -Hartree energ DENC   =     -5440.58550698
  -exchange      EXHF   =         0.00000000
  -V(xc)+E(xc)   XCENC  =       629.83126654
  PAW double counting   =     21464.44761556   -22215.42853594
  entropy T*S    EENTRO =         0.01499294
  eigenvalues    EBANDS =     -1962.02901022
  atomic energy  EATOM  =     24304.10294433
  ---------------------------------------------------
  free energy    TOTEN  =       -86.14954519 eV

  energy without entropy =      -86.16453813  energy(sigma->0) =      -86.15454284


--------------------------------------------------------------------------------------------------------




--------------------------------------- Iteration      1(   9)  ---------------------------------------


    POTLOK:  cpu time      0.0231: real time      0.0233
    SETDIJ:  cpu time      0.0081: real time      0.0081
    TRIAL :  cpu time      2.0330: real time      2.0538
    CORREC:  cpu time      0.7920: real time      0.8009
    CHARGE:  cpu time      0.1592: real time      0.1600
    --------------------------------------------
      LOOP:  cpu time      3.0383: real time      3.0693

 eigenvalue-minimisations  :     0
 total energy-change (2. order) :-0.3771271E+01  (-0.6154494E+00)
 number of electron     156.0000211 magnetization       2.4313933
 augmentation part       84.7413823 magnetization       1.8555093

 Free energy of the ion-electron system (eV)
  ---------------------------------------------------
  alpha Z        PSCENC =      1063.68830978
  Ewald energy   TEWEN  =    -17930.18894347
  -Hartree energ DENC   =     -5660.18817941
  -exchange      EXHF   =         0.00000000
  -V(xc)+E(xc)   XCENC  =       638.92773075
  PAW double counting   =     21876.30840939   -22657.94876790
  entropy T*S    EENTRO =         0.01375377
  eigenvalues    EBANDS =     -1724.63731275
  atomic energy  EATOM  =     24304.10294433
  ---------------------------------------------------
  free energy    TOTEN  =       -89.92081635 eV

  energy without entropy =      -89.93457012  energy(sigma->0) =      -89.92540094


--------------------------------------------------------------------------------------------------------




--------------------------------------- Iteration      1(  10)  ---------------------------------------


    POTLOK:  cpu time      0.0234: real time      0.0237
    SETDIJ:  cpu time      0.0083: real time      0.0083
    TRIAL :  cpu time      2.0434: real time      2.0643
    CORREC:  cpu time      0.7905: real time      0.7990
    CHARGE:  cpu time      0.1579: real time      0.1587
    --------------------------------------------
      LOOP:  cpu time      3.0328: real time      3.0767

 eigenvalue-minimisations  :     0
 total energy-change (2. order) :-0.7354377E+00  (-0.8939665E+00)
 number of electron     156.0000211 magnetization       2.3956265
 augmentation part       84.9418134 magnetization       1.8618157

 Free energy of the ion-electron system (eV)
  ---------------------------------------------------
  alpha Z        PSCENC =      1063.68830978
  Ewald energy   TEWEN  =    -17930.18894347
  -Hartree energ DENC   =     -5700.11598346
  -exchange      EXHF   =         0.00000000
  -V(xc)+E(xc)   XCENC  =       640.75617102
  PAW double counting   =     21970.06533032   -22755.50817298
  entropy T*S    EENTRO =         0.01267548
  eigenvalues    EBANDS =     -1683.46966332
  atomic energy  EATOM  =     24304.10294433
  ---------------------------------------------------
  free energy    TOTEN  =       -90.65625401 eV

  energy without entropy =      -90.66892949  energy(sigma->0) =      -90.66047917


--------------------------------------------------------------------------------------------------------




--------------------------------------- Iteration      1(  11)  ---------------------------------------


    POTLOK:  cpu time      0.0230: real time      0.0233
    SETDIJ:  cpu time      0.0077: real time      0.0077
    TRIAL :  cpu time      1.9872: real time      2.0072
    CORREC:  cpu time      0.7968: real time      0.8054
    CHARGE:  cpu time      0.1596: real time      0.1605
    --------------------------------------------
      LOOP:  cpu time      2.9820: real time      3.0267

 eigenvalue-minimisations  :     0
 total energy-change (2. order) :-0.9060145E+00  (-0.3899211E+00)
 number of electron     156.0000210 magnetization       2.4929961
 augmentation part       84.9935219 magnetization       1.9193069

 Free energy of the ion-electron system (eV)
  ---------------------------------------------------
  alpha Z        PSCENC =      1063.68830978
  Ewald energy   TEWEN  =    -17930.18894347
  -Hartree energ DENC   =     -5718.19345617
  -exchange      EXHF   =         0.00000000
  -V(xc)+E(xc)   XCENC  =       641.90678215
  PAW double counting   =     22032.76940582   -22812.12008843
  entropy T*S    EENTRO =         0.01389347
  eigenvalues    EBANDS =     -1673.53989800
  atomic energy  EATOM  =     24304.10294433
  ---------------------------------------------------
  free energy    TOTEN  =       -91.56226851 eV

  energy without entropy =      -91.57616198  energy(sigma->0) =      -91.56689967


--------------------------------------------------------------------------------------------------------




--------------------------------------- Iteration      1(  12)  ---------------------------------------


    POTLOK:  cpu time      0.0231: real time      0.0233
    SETDIJ:  cpu time      0.0081: real time      0.0081
    TRIAL :  cpu time      2.0541: real time      2.0750
    CORREC:  cpu time      0.7928: real time      0.8014
    CHARGE:  cpu time      0.1592: real time      0.1601
    --------------------------------------------
      LOOP:  cpu time      3.0592: real time      3.0900

 eigenvalue-minimisations  :     0
 total energy-change (2. order) :-0.4665229E+00  (-0.1944907E+00)
 number of electron     156.0000210 magnetization       2.5800551
 augmentation part       84.9678497 magnetization       1.9643707

 Free energy of the ion-electron system (eV)
  ---------------------------------------------------
  alpha Z        PSCENC =      1063.68830978
  Ewald energy   TEWEN  =    -17930.18894347
  -Hartree energ DENC   =     -5722.14522836
  -exchange      EXHF   =         0.00000000
  -V(xc)+E(xc)   XCENC  =       642.23201710
  PAW double counting   =     22053.79505551   -22828.01049068
  entropy T*S    EENTRO =         0.01481111
  eigenvalues    EBANDS =     -1675.51634905
  atomic energy  EATOM  =     24304.10294433
  ---------------------------------------------------
  free energy    TOTEN  =       -92.02879138 eV

  energy without entropy =      -92.04360248  energy(sigma->0) =      -92.03372841


--------------------------------------------------------------------------------------------------------




--------------------------------------- Iteration      1(  13)  ---------------------------------------


    POTLOK:  cpu time      0.0230: real time      0.0232
    SETDIJ:  cpu time      0.0079: real time      0.0080
    TRIAL :  cpu time      2.0232: real time      2.0432
    CORREC:  cpu time      0.7923: real time      0.8008
    CHARGE:  cpu time      0.1587: real time      0.1597
    --------------------------------------------
      LOOP:  cpu time      3.0151: real time      3.0571

 eigenvalue-minimisations  :     0
 total energy-change (2. order) :-0.1747582E+00  (-0.2030216E+00)
 number of electron     156.0000209 magnetization       2.5835569
 augmentation part       84.8886509 magnetization       1.9731871

 Free energy of the ion-electron system (eV)
  ---------------------------------------------------
  alpha Z        PSCENC =      1063.68830978
  Ewald energy   TEWEN  =    -17930.18894347
  -Hartree energ DENC   =     -5719.51510201
  -exchange      EXHF   =         0.00000000
  -V(xc)+E(xc)   XCENC  =       642.14501343
  PAW double counting   =     22046.72106629   -22817.24180108
  entropy T*S    EENTRO =         0.01509699
  eigenvalues    EBANDS =     -1681.92984797
  atomic energy  EATOM  =     24304.10294433
  ---------------------------------------------------
  free energy    TOTEN  =       -92.20354960 eV

  energy without entropy =      -92.21864659  energy(sigma->0) =      -92.20858193


--------------------------------------------------------------------------------------------------------




--------------------------------------- Iteration      1(  14)  ---------------------------------------


    POTLOK:  cpu time      0.0228: real time      0.0230
    SETDIJ:  cpu time      0.0078: real time      0.0079
    TRIAL :  cpu time      2.0832: real time      2.1048
    CORREC:  cpu time      0.7929: real time      0.8013
    CHARGE:  cpu time      0.1586: real time      0.1595
    --------------------------------------------
      LOOP:  cpu time      3.0734: real time      3.1190

 eigenvalue-minimisations  :     0
 total energy-change (2. order) :-0.1981771E+00  (-0.1525790E+00)
 number of electron     156.0000209 magnetization       2.5088291
 augmentation part       84.8390128 magnetization       1.9446782

 Free energy of the ion-electron system (eV)
  ---------------------------------------------------
  alpha Z        PSCENC =      1063.68830978
  Ewald energy   TEWEN  =    -17930.18894347
  -Hartree energ DENC   =     -5711.05628263
  -exchange      EXHF   =         0.00000000
  -V(xc)+E(xc)   XCENC  =       641.86155415
  PAW double counting   =     22023.11297138   -22787.26911173
  entropy T*S    EENTRO =         0.01478688
  eigenvalues    EBANDS =     -1696.66826548
  atomic energy  EATOM  =     24304.10294433
  ---------------------------------------------------
  free energy    TOTEN  =       -92.40172670 eV

  energy without entropy =      -92.41651358  energy(sigma->0) =      -92.40665566


--------------------------------------------------------------------------------------------------------




--------------------------------------- Iteration      1(  15)  ---------------------------------------


    POTLOK:  cpu time      0.0230: real time      0.0232
    SETDIJ:  cpu time      0.0079: real time      0.0080
    TRIAL :  cpu time      2.1397: real time      2.1613
    CORREC:  cpu time      0.7925: real time      0.8012
    CHARGE:  cpu time      0.1593: real time      0.1602
    --------------------------------------------
      LOOP:  cpu time      3.1303: real time      3.1758

 eigenvalue-minimisations  :     0
 total energy-change (2. order) :-0.1429513E+00  (-0.2322728E+00)
 number of electron     156.0000208 magnetization       2.4657839
 augmentation part       84.7989851 magnetization       1.9423806

 Free energy of the ion-electron system (eV)
  ---------------------------------------------------
  alpha Z        PSCENC =      1063.68830978
  Ewald energy   TEWEN  =    -17930.18894347
  -Hartree energ DENC   =     -5706.82917733
  -exchange      EXHF   =         0.00000000
  -V(xc)+E(xc)   XCENC  =       641.75123736
  PAW double counting   =     22009.33788245   -22769.54726165
  entropy T*S    EENTRO =         0.01579763
  eigenvalues    EBANDS =     -1704.87445630
  atomic energy  EATOM  =     24304.10294433
  ---------------------------------------------------
  free energy    TOTEN  =       -92.54467796 eV

  energy without entropy =      -92.56047558  energy(sigma->0) =      -92.54994383


--------------------------------------------------------------------------------------------------------




--------------------------------------- Iteration      1(  16)  ---------------------------------------


    POTLOK:  cpu time      0.0228: real time      0.0231
    SETDIJ:  cpu time      0.0081: real time      0.0081
    TRIAL :  cpu time      2.0331: real time      2.0541
    CORREC:  cpu time      0.7915: real time      0.8002
    CHARGE:  cpu time      0.1580: real time      0.1588
    --------------------------------------------
      LOOP:  cpu time      3.0355: real time      3.0666

 eigenvalue-minimisations  :     0
 total energy-change (2. order) :-0.2305208E+00  (-0.8253762E-01)
 number of electron     156.0000208 magnetization       2.5058321
 augmentation part       84.7974959 magnetization       1.9695537

 Free energy of the ion-electron system (eV)
  ---------------------------------------------------
  alpha Z        PSCENC =      1063.68830978
  Ewald energy   TEWEN  =    -17930.18894347
  -Hartree energ DENC   =     -5710.42913696
  -exchange      EXHF   =         0.00000000
  -V(xc)+E(xc)   XCENC  =       641.91829279
  PAW double counting   =     22001.15111523   -22756.90228495
  entropy T*S    EENTRO =         0.01718459
  eigenvalues    EBANDS =     -1706.13129313
  atomic energy  EATOM  =     24304.10294433
  ---------------------------------------------------
  free energy    TOTEN  =       -92.77519876 eV

  energy without entropy =      -92.79238335  energy(sigma->0) =      -92.78092696


--------------------------------------------------------------------------------------------------------




--------------------------------------- Iteration      1(  17)  ---------------------------------------


    POTLOK:  cpu time      0.0232: real time      0.0234
    SETDIJ:  cpu time      0.0078: real time      0.0078
    TRIAL :  cpu time      2.0253: real time      2.0458
    CORREC:  cpu time      0.7919: real time      0.8005
    CHARGE:  cpu time      0.1581: real time      0.1592
    --------------------------------------------
      LOOP:  cpu time      3.0154: real time      3.0594

 eigenvalue-minimisations  :     0
 total energy-change (2. order) :-0.1289621E+00  (-0.9739442E-01)
 number of electron     156.0000208 magnetization       2.5940557
[...]
     34       4.3811      1.00000
     35       4.6635      1.00000
     36       4.6890      1.00000
     37       4.8798      1.00000
     38       4.9335      1.00000
     39       4.9395      1.00000
     40       5.4709      1.00000
     41       5.8465      1.00000
     42       6.2037      1.00000
     43       6.3377      1.00000
     44       6.3447      1.00000
     45       6.4384      1.00000
     46       6.4471      1.00000
     47       6.5873      1.00000
     48       6.5946      1.00000
     49       6.6379      1.00000
     50       6.7327      1.00000
     51       6.8341      1.00000
     52       6.8757      1.00000
     53       6.8782      1.00000
     54       6.9129      1.00000
     55       6.9572      1.00000
     56       7.0470      1.00000
     57       7.1522      1.00000
     58       7.2001      1.00000
     59       7.3293      1.00000
     60       7.6557      1.00000
     61       7.7347      1.00000
     62       8.0532      1.00000
     63       8.2710      1.00000
     64       8.2726      1.00000
     65       8.3106      1.00000
     66       8.3448      1.00000
     67       8.4369      1.00000
     68       8.4435      1.00000
     69       8.6739      1.00000
     70       8.6845      1.00000
     71       8.7134      1.00000
     72       8.7304      1.00000
     73       8.8826      1.00005
     74       8.9448      1.00027
     75       9.0959      1.00679
     76       9.1741      1.02037
     77       9.3782      0.93637
     78       9.3982      0.89040
     79       9.6238      0.08486
     80       9.6934     -0.01737
     81       9.6950     -0.01850
     82       9.7276     -0.03307
     83       9.9728     -0.00235
     84      10.2273     -0.00000
     85      10.2821     -0.00000
     86      10.4534     -0.00000
     87      10.4684     -0.00000
     88      10.4941     -0.00000
     89      10.8662     -0.00000
     90      10.9182     -0.00000
     91      10.9706     -0.00000
     92      11.1070     -0.00000
     93      11.1089     -0.00000
     94      11.5673     -0.00000
     95      11.6589     -0.00000
     96      11.7678     -0.00000


--------------------------------------------------------------------------------------------------------


 soft charge-density along one line, spin component           1
         0         1         2         3         4         5         6         7         8         9
 total charge-density along one line
 
 soft charge-density along one line, spin component           2
         0         1         2         3         4         5         6         7         8         9
 total charge-density along one line
 
 pseudopotential strength for first ion, spin component:           1
-43.002  -0.000   0.000   6.781   0.000  -0.000  -0.000   0.000
 -0.000 -42.999   0.000   0.000   6.779  -0.000  -0.000   0.000
  0.000   0.000 -42.936  -0.000  -0.000   6.752   0.000  -0.000
  6.781   0.000  -0.000   5.874   0.000  -0.000   0.000  -0.000
  0.000   6.779  -0.000   0.000   5.875  -0.000   0.000  -0.000
 -0.000  -0.000   6.752  -0.000  -0.000   5.882  -0.000   0.000
 -0.000  -0.000   0.000   0.000   0.000  -0.000  -0.495  -0.000
  0.000   0.000  -0.000  -0.000  -0.000   0.000  -0.000  -0.476
 -0.000   0.000  -0.000   0.000  -0.000  -0.000  -0.000  -0.000
 -0.000  -0.000   0.000   0.000   0.000  -0.000  -0.000  -0.000
 -0.000   0.000  -0.000   0.000   0.000   0.000   0.000   0.000
  0.000  -0.000   0.000  -0.000   0.000  -0.000  -1.035  -0.000
  0.000   0.000  -0.000  -0.000  -0.000   0.000  -0.000  -1.015
 -0.000   0.000  -0.000   0.000  -0.000   0.000  -0.000  -0.000
 -0.000  -0.000   0.000   0.000   0.000  -0.000  -0.000  -0.000
 -0.000   0.000  -0.000   0.000   0.000   0.000   0.000   0.000
 -0.000  -0.000   0.000  -0.000  -0.000   0.000  -0.000   0.000
 -0.000  -0.000   0.000  -0.000  -0.000   0.000  -0.000   0.000
 pseudopotential strength for first ion, spin component:           2
-45.303  -0.000   0.000   7.747   0.000  -0.000  -0.000   0.000
 -0.000 -45.272  -0.000   0.000   7.734   0.000   0.000   0.000
  0.000  -0.000 -45.116  -0.000   0.000   7.672   0.000   0.000
  7.747   0.000  -0.000   5.603   0.000  -0.000  -0.000  -0.000
  0.000   7.734   0.000   0.000   5.606   0.000  -0.000  -0.000
 -0.000   0.000   7.672  -0.000   0.000   5.618  -0.000  -0.000
 -0.000   0.000   0.000  -0.000  -0.000  -0.000  -2.276  -0.000
  0.000   0.000   0.000  -0.000  -0.000  -0.000  -0.000  -2.446
 -0.000   0.000   0.000   0.000  -0.000  -0.000  -0.000  -0.000
  0.000  -0.000   0.000  -0.000   0.000  -0.000  -0.000  -0.000
 -0.000   0.000  -0.000   0.000  -0.000   0.000   0.000   0.000
 -0.000   0.000   0.000   0.000  -0.000  -0.000  -2.786  -0.000
  0.000   0.000   0.000  -0.000  -0.000  -0.000  -0.000  -2.954
 -0.000   0.000   0.000   0.000  -0.000   0.000  -0.000  -0.000
  0.000  -0.000   0.000  -0.000   0.000  -0.000  -0.000  -0.000
 -0.000   0.000  -0.000   0.000  -0.000   0.000   0.000   0.000
 -0.000  -0.000  -0.000  -0.000   0.000  -0.000  -0.000   0.000
 -0.000  -0.000   0.000  -0.000   0.000   0.000  -0.000   0.000
 total augmentation occupancy for first ion, spin component:           1
  1.992  -0.000   0.000  -0.027   0.000   0.000  -0.000  -0.000   0.000  -0.000   0.000   0.000   0.000  -0.000  -0.000   0.000
 -0.000   1.992   0.000   0.000  -0.027   0.000  -0.000   0.000  -0.000   0.000   0.000   0.000   0.000   0.000   0.000  -0.000
  0.000   0.000   1.992   0.000   0.000  -0.025   0.000   0.000   0.000  -0.000   0.000   0.000  -0.000   0.000   0.000   0.000
 -0.027   0.000   0.000   0.166  -0.000   0.000   0.000   0.000   0.000   0.000   0.000   0.000  -0.000   0.000   0.000  -0.000
  0.000  -0.027   0.000  -0.000   0.169   0.000   0.000  -0.000   0.000   0.000  -0.000   0.000   0.000  -0.000   0.000   0.000
  0.000   0.000  -0.025   0.000   0.000   0.168   0.000   0.000  -0.000   0.000   0.000   0.000   0.000   0.000  -0.000   0.000
 -0.000  -0.000   0.000   0.000   0.000   0.000   2.769   0.000   0.000  -0.000   0.000  -1.499   0.000   0.000   0.000  -0.000
 -0.000   0.000   0.000   0.000  -0.000   0.000   0.000   3.024   0.000   0.000   0.000   0.000  -1.993   0.000   0.000   0.000
  0.000  -0.000   0.000   0.000   0.000  -0.000   0.000   0.000   3.307   0.000   0.155   0.000   0.000  -1.874  -0.000  -0.030
 -0.000   0.000  -0.000   0.000   0.000   0.000  -0.000   0.000   0.000   2.732  -0.000   0.000   0.000   0.000  -1.473   0.000
  0.000   0.000   0.000   0.000  -0.000   0.000   0.000   0.000   0.155  -0.000   3.141  -0.000   0.000  -0.031   0.000  -1.795
  0.000   0.000   0.000   0.000   0.000   0.000  -1.499   0.000   0.000   0.000  -0.000   1.637   0.000   0.000  -0.000   0.000
  0.000   0.000  -0.000  -0.000   0.000   0.000   0.000  -1.993   0.000   0.000   0.000   0.000   2.178  -0.000   0.000   0.000
 -0.000   0.000   0.000   0.000  -0.000   0.000   0.000   0.000  -1.874   0.000  -0.031   0.000  -0.000   1.740  -0.000  -0.047
 -0.000   0.000   0.000   0.000   0.000  -0.000   0.000   0.000  -0.000  -1.473   0.000  -0.000   0.000  -0.000   1.678   0.000
  0.000  -0.000   0.000  -0.000   0.000   0.000  -0.000   0.000  -0.030   0.000  -1.795   0.000   0.000  -0.047   0.000   1.726
 -0.000   0.000  -0.000   0.000  -0.000   0.000   0.000   0.000  -0.072   0.000   0.108   0.000   0.000   0.054   0.000  -0.032
  0.000  -0.000  -0.000   0.000   0.000  -0.000   0.000   0.000   0.008  -0.000  -0.015   0.000   0.000  -0.005  -0.000   0.007
 total augmentation occupancy for first ion, spin component:           2
  0.002  -0.000   0.000   0.008  -0.000   0.000   0.000   0.000   0.000   0.000   0.000   0.000  -0.000   0.000   0.000   0.000
 -0.000   0.002   0.000  -0.000   0.009  -0.000   0.000   0.000   0.000  -0.000   0.000  -0.000   0.000  -0.000   0.000  -0.000
  0.000   0.000   0.002   0.000  -0.000   0.010  -0.000   0.000   0.000   0.000   0.000   0.000  -0.000   0.000  -0.000   0.000
  0.008  -0.000   0.000  -0.003   0.000   0.000   0.000  -0.000   0.000   0.000   0.000   0.000  -0.000   0.000   0.000   0.000
 -0.000   0.009  -0.000   0.000   0.007  -0.000  -0.000   0.000  -0.000   0.000  -0.000   0.000   0.000   0.000   0.000   0.000
  0.000  -0.000   0.010   0.000  -0.000   0.007   0.000   0.000  -0.000  -0.000   0.000   0.000   0.000   0.000  -0.000   0.000
  0.000   0.000  -0.000   0.000  -0.000   0.000  -2.247  -0.000   0.000   0.000   0.000   0.967   0.000   0.000  -0.000  -0.000
  0.000   0.000   0.000  -0.000   0.000   0.000  -0.000  -2.215   0.000   0.000   0.000   0.000   0.750  -0.000   0.000   0.000
  0.000   0.000   0.000   0.000  -0.000  -0.000   0.000   0.000  -2.661  -0.000  -0.084   0.000  -0.000   1.137  -0.000   0.125
  0.000  -0.000   0.000   0.000   0.000  -0.000   0.000   0.000  -0.000  -2.154   0.000  -0.000   0.000  -0.000   0.927   0.000
  0.000   0.000   0.000   0.000  -0.000   0.000   0.000   0.000  -0.084   0.000  -2.556  -0.000  -0.000   0.125  -0.000   1.017
  0.000  -0.000   0.000   0.000   0.000   0.000   0.967   0.000   0.000  -0.000  -0.000  -0.214  -0.000   0.000   0.000  -0.000
 -0.000   0.000  -0.000  -0.000   0.000   0.000   0.000   0.750  -0.000   0.000  -0.000  -0.000   0.020   0.000   0.000   0.000
  0.000  -0.000   0.000   0.000   0.000   0.000   0.000  -0.000   1.137  -0.000   0.125   0.000   0.000  -0.345   0.000  -0.142
  0.000   0.000  -0.000   0.000   0.000  -0.000  -0.000   0.000  -0.000   0.927  -0.000   0.000   0.000   0.000  -0.162   0.000
  0.000  -0.000   0.000   0.000   0.000   0.000  -0.000   0.000   0.125   0.000   1.017  -0.000   0.000  -0.142   0.000  -0.217
  0.000   0.000   0.000   0.000  -0.000   0.000   0.000   0.000  -0.005   0.000  -0.045   0.000   0.000   0.000  -0.000   0.066
 -0.000  -0.000   0.000   0.000   0.000  -0.000   0.000   0.000  -0.004  -0.000   0.011   0.000   0.000   0.001  -0.000  -0.004


------------------------ aborting loop because EDIFF is reached ----------------------------------------





 total charge

# of ion       s       p       d       tot
------------------------------------------
    1        0.344   6.311   6.033  12.688
    2        0.340   6.309   6.003  12.652
    3        0.340   6.309   6.003  12.652
    4        0.346   6.316   5.997  12.659
    5        0.346   6.316   5.997  12.659
    6        0.343   6.313   5.999  12.655
    7        0.344   6.311   6.033  12.688
    8        0.340   6.309   6.003  12.652
    9        0.340   6.309   6.003  12.652
   10        0.759   0.655   8.022   9.436
   11        0.759   0.655   8.022   9.436
   12        0.743   0.675   8.018   9.437
--------------------------------------------------
tot          5.346  58.789  78.131 142.266



 magnetization (x)

# of ion       s       p       d       tot
------------------------------------------
    1       -0.006   0.009  -2.645  -2.642
    2        0.011   0.003   2.622   2.635
    3        0.011   0.003   2.622   2.636
    4       -0.016  -0.025  -2.635  -2.676
    5       -0.016  -0.025  -2.635  -2.676
    6        0.005  -0.017   2.826   2.814
    7       -0.006   0.009  -2.645  -2.642
    8        0.011   0.003   2.622   2.635
    9        0.011   0.003   2.622   2.636
   10        0.008   0.020  -0.112  -0.084
   11        0.008   0.020  -0.112  -0.084
   12       -0.038  -0.090   0.372   0.243
--------------------------------------------------
tot         -0.017  -0.089   2.900   2.794
 
    FORLOC:  cpu time      0.0010: real time      0.0010
    FORNL :  cpu time      0.5682: real time      0.5713
    STRESS:  cpu time      4.3699: real time      4.4049
    FORCOR:  cpu time      0.0217: real time      0.0218
    OFIELD:  cpu time      0.0002: real time      0.0002

  FORCE on cell =-STRESS in cart. coord.  units (eV):
  Direction    XX          YY          ZZ          XY          YZ          ZX
  --------------------------------------------------------------------------------------
  Alpha Z  1063.68831  1063.68831  1063.68831
  Ewald   -5963.28454 -5963.28454 -6003.79401    -0.00000    -0.00000     0.00000
  Hartree  1922.85170  1922.85170  1885.01166    -0.00000    -0.00000    -0.00000
  E(xc)    -942.90121  -942.90121  -942.82344     0.00000    -0.00000     0.00000
  Local    1001.29286  1001.29286  1089.65866     0.00000    -0.00000     0.00000
  n-local  -218.80935  -233.29283  -226.52221    14.09633     0.04549     0.01448
  augment  1441.74674  1441.74674  1435.59725    -0.00000    -0.00000    -0.00000
  Kinetic  1703.79133  1689.02416  1692.94386     2.20897     0.26104     0.52245
  Fock        0.00000     0.00000     0.00000     0.00000     0.00000     0.00000
  -------------------------------------------------------------------------------------
  Total      -6.24948    -6.24948    -6.23992     0.00000     0.00000     0.00000
  in kB     -62.57986   -62.57986   -62.48410     0.00000     0.00000     0.00000
  external pressure =      -62.55 kB  Pullay stress =        0.00 kB


 VOLUME and BASIS-vectors are now :
 -----------------------------------------------------------------------------
  energy-cutoff  :      520.00
  volume of cell :      160.00
      direct lattice vectors                 reciprocal lattice vectors
     3.741514382  0.000000000  0.000000000     0.267271457  0.000000000  0.000000000
     0.000000000  3.741514382  0.000000000     0.000000000  0.267271457  0.000000000
     0.000000000 -0.000000000 11.429445070     0.000000000  0.000000000  0.087493312

  length of vectors
     3.741514382  3.741514382 11.429445070     0.267271457  0.267271457  0.087493312


 FORCES acting on ions:
    Electron-Ion                     Ewald-Force                    Non-Local-Force
 -----------------------------------------------------------------------------------------------
   -.124E-13 0.130E-11 -.322E+00   0.174E-13 -.540E-14 0.321E+00   0.450E-21 -.665E-21 0.354E-02
   -.631E-14 0.100E-11 -.155E+02   -.217E-13 -.223E-14 0.167E+02   -.184E-18 0.367E-18 -.118E+01
   -.507E-14 0.239E-11 0.159E+02   -.226E-13 -.252E-13 -.170E+02   -.238E-18 -.114E-17 0.118E+01
   0.108E-11 -.517E-11 0.118E+03   0.120E-13 0.292E-13 -.116E+03   -.119E-17 -.997E-18 -.218E+01
   0.112E-11 -.340E-11 -.118E+03   0.138E-13 -.184E-13 0.115E+03   -.364E-19 -.359E-19 0.218E+01
   0.114E-11 0.771E-11 -.440E+00   0.620E-13 0.209E-13 0.437E+00   -.445E-21 -.164E-20 0.249E-02
   0.113E-11 0.101E-14 -.322E+00   -.845E-14 0.255E-13 0.321E+00   -.558E-21 0.815E-21 0.354E-02
   0.111E-11 -.630E-12 -.155E+02   -.289E-13 0.121E-13 0.167E+02   -.982E-19 0.583E-18 -.118E+01
   0.111E-11 0.846E-11 0.159E+02   -.238E-13 -.105E-13 -.170E+02   0.341E-18 -.823E-18 0.118E+01
   -.127E-13 -.691E-12 0.316E+02   0.119E-13 0.219E-13 -.318E+02   0.347E-17 0.950E-18 0.281E+00
   -.205E-13 -.630E-12 -.314E+02   -.377E-13 0.264E-14 0.316E+02   -.426E-18 -.104E-17 -.280E+00
   -.211E-13 -.406E-12 -.312E+00   -.338E-13 -.156E-14 0.312E+00   -.217E-21 -.228E-22 0.138E-02
 -----------------------------------------------------------------------------------------------
   0.666E-11 0.997E-11 0.961E-03   -.599E-13 0.489E-13 -.355E-12   0.164E-17 -.215E-17 -.118E-02
 
 
 POSITION                                       TOTAL-FORCE (eV/Angst)
 -----------------------------------------------------------------------------------
      0.00000      1.87076      1.90474         0.000000     -0.000000      0.003377
      0.00000      1.87076      5.70981         0.000000      0.000000     -0.001256
      0.00000      1.87076      9.52964         0.000000      0.000000     -0.003915
      1.87076      1.87076      0.09219        -0.000000     -0.000000      0.000647
      1.87076      1.87076      3.71799        -0.000000     -0.000000      0.001742
      1.87076      1.87076      7.61941        -0.000000      0.000000     -0.001224
      1.87076     -0.00000      1.90474         0.000000     -0.000000      0.003377
      1.87076     -0.00000      5.70981        -0.000000      0.000000     -0.001256
      1.87076      3.74151      9.52964         0.000000      0.000000     -0.003915
      0.00000     -0.00000     11.39804         0.000000     -0.000000      0.001542
      0.00000      3.74151      3.84126         0.000000      0.000000     -0.000009
      0.00000     -0.00000      7.61940         0.000000     -0.000000      0.000890
 -----------------------------------------------------------------------------------
    total drift:                                0.000000      0.000000     -0.000224


--------------------------------------------------------------------------------------------------------



  FREE ENERGIE OF THE ION-ELECTRON SYSTEM (eV)
  ---------------------------------------------------
  free  energy   TOTEN  =       -93.28412701 eV

  energy  without entropy=      -93.29121822  energy(sigma->0) =      -93.28649075
 
 d Force = 0.1054199E-04[ 0.411E-05, 0.170E-04]  d Energy = 0.1622908E-04-0.569E-05
 d Force =-0.9065176E-01[-0.916E-01,-0.897E-01]  d Ewald  =-0.8686997E-01-0.378E-02


--------------------------------------------------------------------------------------------------------


    POTLOK:  cpu time      0.1005: real time      0.1536


--------------------------------------------------------------------------------------------------------




--------------------------------------------------------------------------------------------------------


  
 reached required accuracy - stopping structural energy minimisation
     LOOP+:  cpu time     51.7557: real time     52.5061
    4ORBIT:  cpu time      0.0000: real time      0.0000



 total charge

# of ion       s       p       d       tot
------------------------------------------
    1        0.344   6.311   6.033  12.688
    2        0.340   6.309   6.003  12.652
    3        0.340   6.309   6.003  12.652
    4        0.346   6.316   5.997  12.659
    5        0.346   6.316   5.997  12.659
    6        0.343   6.313   5.999  12.655
    7        0.344   6.311   6.033  12.688
    8        0.340   6.309   6.003  12.652
    9        0.340   6.309   6.003  12.652
   10        0.759   0.655   8.022   9.436
   11        0.759   0.655   8.022   9.436
   12        0.743   0.675   8.018   9.437
--------------------------------------------------
tot          5.346  58.789  78.131 142.266



 magnetization (x)

# of ion       s       p       d       tot
------------------------------------------
    1       -0.006   0.009  -2.645  -2.642
    2        0.011   0.003   2.622   2.635
    3        0.011   0.003   2.622   2.636
    4       -0.016  -0.025  -2.635  -2.676
    5       -0.016  -0.025  -2.635  -2.676
    6        0.005  -0.017   2.826   2.814
    7       -0.006   0.009  -2.645  -2.642
    8        0.011   0.003   2.622   2.635
    9        0.011   0.003   2.622   2.636
   10        0.008   0.020  -0.112  -0.084
   11        0.008   0.020  -0.112  -0.084
   12       -0.038  -0.090   0.372   0.243
--------------------------------------------------
tot         -0.017  -0.089   2.900   2.794
 

 total amount of memory used by VASP MPI-rank0   255444. kBytes
=======================================================================

   base      :      30000. kBytes
   nonl-proj :     106119. kBytes
   fftplans  :        955. kBytes
   grid      :       7297. kBytes
   one-center:        373. kBytes
   wavefun   :     110700. kBytes
 
  
  
 General timing and accounting informations for this job:
 ========================================================
  
                  Total CPU time used (sec):      331.482
                            User time (sec):      324.443
                          System time (sec):        7.039
                         Elapsed time (sec):      346.828
  
                   Maximum memory used (kb):     1046372.
                   Average memory used (kb):          N/A
  
                          Minor page faults:       162036
                          Major page faults:          209
                 Voluntary context switches:        15431
