       N       E                     dE             d eps       ncg     rms          ort
DAV:   1     0.173711828881E+04    0.17371E+04   -0.93727E+04  8064   0.252E+03
DAV:   2     0.905174465244E+01   -0.17281E+04   -0.16975E+04  8064   0.605E+02
DAV:   3    -0.102845706805E+03   -0.11190E+03   -0.11071E+03  8064   0.160E+02
DAV:   4    -0.105176358623E+03   -0.23307E+01   -0.23286E+01  8064   0.248E+01
DAV:   5    -0.105227853417E+03   -0.51495E-01   -0.51487E-01  8064   0.369E+00
SDA:   6    -0.541117951675E+02    0.51116E+02   -0.51487E-01  8064   0.414E+03 0.000E+00
CGA:   7    -0.811933348657E+02   -0.27082E+02   -0.24168E+02  8064   0.181E+03 0.559E+02
CGA:   8    -0.871237046265E+02   -0.59304E+01   -0.52046E+01  8064   0.382E+02 0.391E+02
CGA:   9    -0.903175153842E+02   -0.31938E+01   -0.32108E+01  8064   0.151E+02 0.530E-01
CGA:  10    -0.913109518286E+02   -0.99344E+00   -0.98255E+00  8064   0.200E+02 0.140E+00
CGA:  11    -0.919690432810E+02   -0.65809E+00   -0.53063E+00  8064   0.405E+01 0.497E+01
CGA:  12    -0.922144050627E+02   -0.24536E+00   -0.25398E+00  8064   0.792E+01-0.130E+00
CGA:  13    -0.925140194605E+02   -0.29961E+00   -0.30123E+00  8064   0.468E+01-0.942E-02
CGA:  14    -0.926126387183E+02   -0.98619E-01   -0.10176E+00  8064   0.298E+01-0.125E+00
CGA:  15    -0.928315464118E+02   -0.21891E+00   -0.21699E+00  8064   0.820E+01 0.232E-01
CGA:  16    -0.929695293158E+02   -0.13798E+00   -0.87457E-01  8064   0.453E+01 0.490E+01
CGA:  17    -0.930696299090E+02   -0.10010E+00   -0.10737E+00  8064   0.100E+01-0.275E+00
CGA:  18    -0.931497046799E+02   -0.80075E-01   -0.80395E-01  8064   0.807E+00-0.744E-03
CGA:  19    -0.932260312577E+02   -0.76327E-01   -0.76549E-01  8064   0.822E+00 0.119E-03
CGA:  20    -0.932565335498E+02   -0.30502E-01   -0.30816E-01  8064   0.371E+00-0.797E-02
CGA:  21    -0.933007649000E+02   -0.44231E-01   -0.44247E-01  8064   0.205E+00 0.277E-02
CGA:  22    -0.933129317925E+02   -0.12167E-01   -0.12278E-01  8064   0.284E+00-0.732E-03
CGA:  23    -0.933422937113E+02   -0.29362E-01   -0.29462E-01  8064   0.276E+00 0.293E-02
CGA:  24    -0.933656132536E+02   -0.23320E-01   -0.23456E-01  8064   0.108E+00 0.124E-02
CGA:  25    -0.933686850035E+02   -0.30717E-02   -0.31297E-02  8064   0.338E-01-0.105E-02
CGA:  26    -0.933734702712E+02   -0.47853E-02   -0.47811E-02  8064   0.860E-01 0.272E-03
CGA:  27    -0.933768078628E+02   -0.33376E-02   -0.33910E-02  8064   0.252E-01-0.494E-03
CGA:  28    -0.933785764205E+02   -0.17686E-02   -0.17762E-02  8064   0.136E-01 0.105E-03
CGA:  29    -0.933799113217E+02   -0.13349E-02   -0.13367E-02  8064   0.300E-01 0.982E-04
CGA:  30    -0.933818936040E+02   -0.19823E-02   -0.19849E-02  8064   0.704E-02 0.144E-04
CGA:  31    -0.933823210954E+02   -0.42749E-03   -0.42643E-03  8064   0.116E-01-0.348E-04
CGA:  32    -0.933834752066E+02   -0.11541E-02   -0.11538E-02  8064   0.102E-01-0.118E-03
CGA:  33    -0.933841452107E+02   -0.67000E-03   -0.66460E-03  8064   0.663E-02-0.125E-03
CGA:  34    -0.933844092131E+02   -0.26400E-03   -0.26087E-03  8064   0.190E-02-0.713E-04
CGA:  35    -0.933846300636E+02   -0.22085E-03   -0.22242E-03  8064   0.209E-02-0.767E-04
CGA:  36    -0.933847021614E+02   -0.72098E-04   -0.70570E-04  8064   0.104E-02-0.213E-04
CGA:  37    -0.933848026141E+02   -0.10045E-03   -0.10048E-03  8064   0.970E-03-0.241E-04
CGA:  38    -0.933848492641E+02   -0.46650E-04   -0.46186E-04  8064   0.535E-03-0.738E-05
CGA:  39    -0.933848765140E+02   -0.27250E-04   -0.27118E-04  8064   0.127E-03-0.266E-05
CGA:  40    -0.933849067219E+02   -0.30208E-04   -0.30781E-04  8064   0.410E-03-0.245E-05
CGA:  41    -0.933849196742E+02   -0.12952E-04   -0.12939E-04  8064   0.835E-04 0.111E-05
CGA:  42    -0.933849252590E+02   -0.55848E-05   -0.56535E-05  8064   0.933E-04 0.364E-05
CGA:  43    -0.933849301896E+02   -0.49306E-05   -0.50748E-05  8064   0.650E-04 0.426E-05
CGA:  44    -0.933849355677E+02   -0.53781E-05   -0.54348E-05  8064   0.180E-04 0.548E-05
CGA:  45    -0.933849389375E+02   -0.33697E-05   -0.32447E-05  8064   0.298E-04 0.241E-05
CGA:  46    -0.933849401682E+02   -0.12307E-05   -0.13081E-05  8064   0.948E-05 0.199E-05
SDA:  47    -0.933849410135E+02   -0.84532E-06   -0.86594E-06  8064   0.360E-05 0.336E-05
   1 F= -.93384941E+02 E0= -.93387725E+02  d E =-.933849E+02  mag=     2.4049
       N       E                     dE             d eps       ncg     rms          ort
SDA:   1    -0.933840768620E+02    0.86331E-03    0.00000E+00  8064   0.787E-02 0.000E+00
CGA:   2    -0.933843019598E+02   -0.22510E-03   -0.22512E-03  8064   0.248E-02 0.139E-05
CGA:   3    -0.933846071941E+02   -0.30523E-03   -0.30526E-03  8064   0.155E-02-0.789E-06
CGA:   4    -0.933847051756E+02   -0.97981E-04   -0.97967E-04  8064   0.218E-02-0.526E-06
CGA:   5    -0.933848121050E+02   -0.10693E-03   -0.10691E-03  8064   0.102E-02-0.455E-06
CGA:   6    -0.933849003642E+02   -0.88259E-04   -0.88261E-04  8064   0.268E-03-0.650E-06
CGA:   7    -0.933849153499E+02   -0.14986E-04   -0.14998E-04  8064   0.276E-03 0.444E-06
CGA:   8    -0.933849339339E+02   -0.18584E-04   -0.18591E-04  8064   0.146E-03 0.316E-06
CGA:   9    -0.933849426774E+02   -0.87435E-05   -0.87407E-05  8064   0.101E-03-0.168E-06
CGA:  10    -0.933849462023E+02   -0.35249E-05   -0.35203E-05  8064   0.458E-04-0.105E-06
CGA:  11    -0.933849534001E+02   -0.71978E-05   -0.72206E-05  8064   0.214E-04-0.293E-06
CGA:  12    -0.933849546870E+02   -0.12869E-05   -0.12833E-05  8064   0.281E-04-0.937E-07
CGA:  13    -0.933849566465E+02   -0.19595E-05   -0.19562E-05  8064   0.122E-04-0.294E-06
CGA:  14    -0.933849571882E+02   -0.54169E-06   -0.54170E-06  8064   0.858E-05 0.897E-08
   2 F= -.93384957E+02 E0= -.93387760E+02  d E =-.161747E-04  mag=     2.4059
       N       E                     dE             d eps       ncg     rms          ort
SDA:   1    -0.933829247901E+02    0.20319E-02    0.00000E+00  8064   0.972E-02 0.000E+00
CGA:   2    -0.933834095246E+02   -0.48473E-03   -0.48468E-03  8064   0.985E-02 0.490E-07
CGA:   3    -0.933840140937E+02   -0.60457E-03   -0.60456E-03  8064   0.462E-02-0.113E-05
CGA:   4    -0.933842773376E+02   -0.26324E-03   -0.26324E-03  8064   0.525E-02-0.119E-05
CGA:   5    -0.933845659861E+02   -0.28865E-03   -0.28865E-03  8064   0.237E-02 0.395E-06
CGA:   6    -0.933848142005E+02   -0.24821E-03   -0.24816E-03  8064   0.528E-03 0.155E-05
CGA:   7    -0.933848563499E+02   -0.42149E-04   -0.42149E-04  8064   0.886E-03-0.805E-07
CGA:   8    -0.933848991528E+02   -0.42803E-04   -0.42794E-04  8064   0.354E-03-0.430E-06
CGA:   9    -0.933849177315E+02   -0.18579E-04   -0.18580E-04  8064   0.208E-03 0.770E-07
CGA:  10    -0.933849272503E+02   -0.95187E-05   -0.95237E-05  8064   0.141E-03 0.213E-06
CGA:  11    -0.933849448673E+02   -0.17617E-04   -0.17636E-04  8064   0.483E-04-0.371E-06
CGA:  12    -0.933849491432E+02   -0.42759E-05   -0.42732E-05  8064   0.841E-04 0.169E-06
CGA:  13    -0.933849526998E+02   -0.35567E-05   -0.35606E-05  8064   0.315E-04 0.889E-07
CGA:  14    -0.933849547498E+02   -0.20499E-05   -0.20502E-05  8064   0.195E-04 0.190E-07
CGA:  15    -0.933849554692E+02   -0.71946E-06   -0.72082E-06  8064   0.773E-05 0.743E-07
CGA:  16    -0.933849566147E+02   -0.11455E-05   -0.11392E-05  8064   0.396E-05 0.104E-06
CGA:  17    -0.933849567877E+02   -0.17304E-06   -0.17356E-06  8064   0.354E-05 0.291E-07
   3 F= -.93384957E+02 E0= -.93387767E+02  d E =-.157742E-04  mag=     2.4040
       N       E                     dE             d eps       ncg     rms          ort
SDA:   1    -0.933846210535E+02    0.33556E-03    0.00000E+00  8064   0.260E-02 0.000E+00
CGA:   2    -0.933846942051E+02   -0.73152E-04   -0.73160E-04  8064   0.121E-02-0.298E-06
CGA:   3    -0.933848020130E+02   -0.10781E-03   -0.10781E-03  8064   0.880E-03-0.269E-06
CGA:   4    -0.933848526754E+02   -0.50662E-04   -0.50660E-04  8064   0.704E-03-0.109E-06
CGA:   5    -0.933848916252E+02   -0.38950E-04   -0.38956E-04  8064   0.438E-03 0.353E-06
CGA:   6    -0.933849383716E+02   -0.46746E-04   -0.46785E-04  8064   0.113E-03-0.110E-05
CGA:   7    -0.933849431627E+02   -0.47911E-05   -0.47937E-05  8064   0.119E-03 0.676E-07
CGA:   8    -0.933849530837E+02   -0.99210E-05   -0.99168E-05  8064   0.436E-04 0.369E-06
CGA:   9    -0.933849558800E+02   -0.27964E-05   -0.27956E-05  8064   0.324E-04-0.400E-07
CGA:  10    -0.933849574302E+02   -0.15502E-05   -0.15517E-05  8064   0.213E-04 0.886E-07
CGA:  11    -0.933849597284E+02   -0.22981E-05   -0.22927E-05  8064   0.159E-04 0.120E-06
CGA:  12    -0.933849602448E+02   -0.51639E-06   -0.51607E-06  8064   0.804E-05-0.309E-07
   4 F= -.93384960E+02 E0= -.93387771E+02  d E =-.192313E-04  mag=     2.4050
       N       E                     dE             d eps       ncg     rms          ort
SDA:   1    -0.933846652568E+02    0.29447E-03    0.00000E+00  8064   0.520E-02 0.000E+00
CGA:   2    -0.933847887999E+02   -0.12354E-03   -0.12356E-03  8064   0.107E-02-0.113E-05
CGA:   3    -0.933848422600E+02   -0.53460E-04   -0.53447E-04  8064   0.471E-03-0.800E-06
CGA:   4    -0.933848828792E+02   -0.40619E-04   -0.40632E-04  8064   0.693E-03-0.750E-06
CGA:   5    -0.933849145096E+02   -0.31630E-04   -0.31632E-04  8064   0.181E-03 0.209E-07
CGA:   6    -0.933849426084E+02   -0.28099E-04   -0.28154E-04  8064   0.125E-03-0.627E-06
CGA:   7    -0.933849508654E+02   -0.82570E-05   -0.82569E-05  8064   0.772E-04 0.161E-06
CGA:   8    -0.933849532541E+02   -0.23887E-05   -0.23912E-05  8064   0.332E-04 0.584E-07
CGA:   9    -0.933849581640E+02   -0.49099E-05   -0.49005E-05  8064   0.179E-04 0.112E-06
CGA:  10    -0.933849588410E+02   -0.67693E-06   -0.67980E-06  8064   0.113E-04 0.740E-07
CGA:  11    -0.933849603989E+02   -0.15579E-05   -0.15541E-05  8064   0.828E-05 0.446E-07
CGA:  12    -0.933849608144E+02   -0.41556E-06   -0.41383E-06  8064   0.686E-05-0.378E-07
   5 F= -.93384961E+02 E0= -.93387769E+02  d E =-.198009E-04  mag=     2.4057
