 vasp.6.4.3 19Mar24 (build Mar 26 2024 14:05:37) complex                        
  
 executed on             LinuxIFC date 2024.12.16  14:25:01
 running  128 mpi-ranks, on    1 nodes
 distrk:  each k-point on   32 cores,    4 groups
 distr:  one band on NCORE=   1 cores,   32 groups


--------------------------------------------------------------------------------------------------------


 INCAR:
   ALGO = All
   EDIFF = 1e-06
   EDIFFG = -0.01
   ENCUT = 520
   GGA = Pe
   IBRION = 2
   ISIF = 4
   ISMEAR = 1
   ISPIN = 2
   KPAR = 4
   LCHARG = True
   LORBIT = 11
   LREAL = False
   LWAVE = False
   MAGMOM = 1*-2.507 1*2.457 1*2.456 1*-2.531 1*-2.532 1*2.659 1*-2.507 1*2.457 1*2.456 2*-0.091 1*0.226
   NELM = 200
   NSW = 100
   PREC = Accurate
   SIGMA = 0.2

 POTCAR:    PAW_PBE Fe_pv 02Aug2007               
 POTCAR:    PAW_PBE Pt 04Feb2005                  
 -----------------------------------------------------------------------------
|                                                                             |
|           W    W    AA    RRRRR   N    N  II  N    N   GGGG   !!!           |
|           W    W   A  A   R    R  NN   N  II  NN   N  G    G  !!!           |
|           W    W  A    A  R    R  N N  N  II  N N  N  G       !!!           |
|           W WW W  AAAAAA  RRRRR   N  N N  II  N  N N  G  GGG   !            |
|           WW  WW  A    A  R   R   N   NN  II  N   NN  G    G                |
|           W    W  A    A  R    R  N    N  II  N    N   GGGG   !!!           |
|                                                                             |
|     For optimal performance we recommend to set                             |
|       NCORE = 2 up to number-of-cores-per-socket                            |
|     NCORE specifies how many cores store one orbital (NPAR=cpu/NCORE).      |
|     This setting can greatly improve the performance of VASP for DFT.       |
|     The default, NCORE=1 might be grossly inefficient on modern             |
|     multi-core architectures or massively parallel machines. Do your        |
|     own testing! More info at https://www.vasp.at/wiki/index.php/NCORE      |
|     Unfortunately you need to use the default for GW and RPA                |
|     calculations (for HF NCORE is supported but not extensively tested      |
|     yet).                                                                   |
|                                                                             |
 -----------------------------------------------------------------------------

 POTCAR:    PAW_PBE Fe_pv 02Aug2007               
   SHA256 =  5d22e414b1f82158bf2c7ecb8b97b28fd0923e48cadc1c3bf74d524558f5dd32 Fe_pv/POTCAR          
   COPYR  = (c) Copyright 02Aug2007 Georg Kresse                                                    
   COPYR  = This file is part of the software VASP. Any use, copying, and all other rights are regul
   COPYR  = If you do not have a valid VASP license, you may not use, copy or distribute this file. 
   VRHFIN =Fe:  3pd7s1                                                                              
   LEXCH  = PE                                                                                      
   EATOM  =  2457.4239 eV,  180.6156 Ry                                                             
                                                                                                    
   TITEL  = PAW_PBE Fe_pv 02Aug2007                                                                 
   LULTRA =        F    use ultrasoft PP ?                                                          
   IUNSCR =        1    unscreen: 0-lin 1-nonlin 2-no                                               
   RPACOR =    1.750    partial core radius                                                         
   POMASS =   55.847; ZVAL   =   14.000    mass and valenz                                          
   RCORE  =    2.200    outmost cutoff radius                                                       
   RWIGS  =    2.200; RWIGS  =    1.164    wigner-seitz radius (au A)                               
   ENMAX  =  293.238; ENMIN  =  219.928 eV                                                          
   ICORE  =        3    local potential                                                             
   LCOR   =        T    correct aug charges                                                         
   LPAW   =        T    paw PP                                                                      
   EAUG   =  578.342                                                                                
   DEXC   =    0.000                                                                                
   RMAX   =    2.249    core radius for proj-oper                                                   
   RAUG   =    1.300    factor for augmentation sphere                                              
   RDEP   =    2.296    radius for radial grids                                                     
   RDEPT  =    1.766    core radius for aug-charge                                                  
                                                                                                    
   Atomic configuration                                                                             
    8 entries                                                                                       
     n  l   j            E        occ.                                                              
     1  0  0.50     -6993.8440   2.0000                                                             
     2  0  0.50      -814.6047   2.0000                                                             
     2  1  1.50      -693.3689   6.0000                                                             
     3  0  0.50       -89.4732   2.0000                                                             
     3  1  1.50       -55.6373   6.0000                                                             
     3  2  2.50        -3.8151   7.0000                                                             
     4  0  0.50        -4.2551   1.0000                                                             
     4  3  2.50        -1.3606   0.0000                                                             
   Description                                                                                      
     l       E           TYP  RCUT    TYP  RCUT                                                     
     1    -55.6372668     23  2.000                                                                 
     1     -5.4423304     23  2.000                                                                 
     2     -3.8151096     23  2.200                                                                 
     2     -5.1756922     23  2.200                                                                 
     0     -4.2550951     23  2.200                                                                 
     0     27.2116520     23  2.200                                                                 
     3     -1.3605826     23  2.200                                                                 
  local pseudopotential read in
  partial core-charges read in
  partial kinetic energy density read in
  atomic valenz-charges read in
  non local Contribution for L=           1  read in
    real space projection operators read in
  non local Contribution for L=           1  read in
    real space projection operators read in
  non local Contribution for L=           2  read in
    real space projection operators read in
  non local Contribution for L=           2  read in
    real space projection operators read in
  non local Contribution for L=           0  read in
    real space projection operators read in
  non local Contribution for L=           0  read in
    real space projection operators read in
    PAW grid and wavefunctions read in
 
   number of l-projection  operators is LMAX  =           6
   number of lm-projection operators is LMMAX =          18
 
 POTCAR:    PAW_PBE Pt 04Feb2005                  
   SHA256 =  3ed90460adef76debcff1cfb73ee1349b515b1a3db03439735b44de3a8db7dc8 Pt/POTCAR             
   COPYR  = (c) Copyright 04Feb2005 Georg Kresse                                                    
   COPYR  = This file is part of the software VASP. Any use, copying, and all other rights are regul
   COPYR  = If you do not have a valid VASP license, you may not use, copy or distribute this file. 
   VRHFIN =Pt: s1d9                                                                                 
   LEXCH  = PE                                                                                      
   EATOM  =   729.1176 eV,   53.5886 Ry                                                             
                                                                                                    
   TITEL  = PAW_PBE Pt 04Feb2005                                                                    
   LULTRA =        F    use ultrasoft PP ?                                                          
   IUNSCR =        1    unscreen: 0-lin 1-nonlin 2-no                                               
   RPACOR =    2.330    partial core radius                                                         
   POMASS =  195.080; ZVAL   =   10.000    mass and valenz                                          
   RCORE  =    2.600    outmost cutoff radius                                                       
   RWIGS  =    2.750; RWIGS  =    1.455    wigner-seitz radius (au A)                               
   ENMAX  =  230.283; ENMIN  =  172.712 eV                                                          
   ICORE  =        3    local potential                                                             
   LCOR   =        T    correct aug charges                                                         
   LPAW   =        T    paw PP                                                                      
   EAUG   =  358.966                                                                                
   DEXC   =    0.000                                                                                
   RMAX   =    2.658    core radius for proj-oper                                                   
   RAUG   =    1.300    factor for augmentation sphere                                              
   RDEP   =    2.761    radius for radial grids                                                     
   RDEPT  =    2.203    core radius for aug-charge                                                  
                                                                                                    
   Atomic configuration                                                                             
   16 entries                                                                                       
     n  l   j            E        occ.                                                              
     1  0  0.50    -78401.1885   2.0000                                                             
     2  0  0.50    -13770.7750   2.0000                                                             
     2  1  1.50    -11931.0468   6.0000                                                             
     3  0  0.50     -3234.7234   2.0000                                                             
     3  1  1.50     -2699.2216   6.0000                                                             
     3  2  2.50     -2119.5714  10.0000                                                             
     4  0  0.50      -695.1528   2.0000                                                             
     4  1  1.50      -519.6034   6.0000                                                             
     4  2  2.50      -306.6786  10.0000                                                             
     4  3  3.50       -70.1041  14.0000                                                             
     5  0  0.50      -101.7747   2.0000                                                             
     5  1  1.50       -55.9873   6.0000                                                             
     5  2  2.50        -6.1423   9.0000                                                             
     6  0  0.50        -5.6573   1.0000                                                             
     6  1  1.50        -6.8029   0.0000                                                             
     5  3  2.50        -1.3606   0.0000                                                             
   Description                                                                                      
     l       E           TYP  RCUT    TYP  RCUT                                                     
     2     -6.1423404     23  2.500                                                                 
     2     -7.5029230     23  2.500                                                                 
     0     -5.6573207     23  2.500                                                                 
     0      0.7416693     23  2.500                                                                 
     1     -2.7211652     23  2.600                                                                 
     1     20.4087390     23  2.600                                                                 
     3     -1.3605826     23  2.500                                                                 
  local pseudopotential read in
  partial core-charges read in
  partial kinetic energy density read in
  atomic valenz-charges read in
  non local Contribution for L=           2  read in
    real space projection operators read in
  non local Contribution for L=           2  read in
    real space projection operators read in
  non local Contribution for L=           0  read in
    real space projection operators read in
  non local Contribution for L=           0  read in
    real space projection operators read in
  non local Contribution for L=           1  read in
    real space projection operators read in
  non local Contribution for L=           1  read in
    real space projection operators read in
    PAW grid and wavefunctions read in
 
   number of l-projection  operators is LMAX  =           6
   number of lm-projection operators is LMMAX =          18
 
  PAW_PBE Fe_pv 02Aug2007               :
 energy of atom  1       EATOM=-2457.4239
 kinetic energy error for atom=    0.0062 (will be added to EATOM!!)
  PAW_PBE Pt 04Feb2005                  :
 energy of atom  2       EATOM= -729.1176
 kinetic energy error for atom=    0.0032 (will be added to EATOM!!)
 
 
 POSCAR: Fe9 Pt3
  positions in direct lattice
  velocities in cartesian coordinates


 exchange-correlation table for PE
   RHO(1)=    0.500       N(1)  =     2000
   RHO(2)=  100.500       N(2)  =     4000
 


--------------------------------------------------------------------------------------------------------


 ion  position               nearest neighbor table
   1  0.000  0.500  0.167-   4 2.58   4 2.58   5 2.58   5 2.58   7 2.60   7 2.60   7 2.60   7 2.60
                            10 2.63  10 2.63  11 2.63  11 2.63
   2  0.000  0.500  0.499-  11 2.59  11 2.59   8 2.60   8 2.60   8 2.60   8 2.60  12 2.62  12 2.62
                             6 2.62   6 2.62   5 2.65   5 2.65
   3  0.000  0.500  0.834-  10 2.59  10 2.59   9 2.60   9 2.60   9 2.60   9 2.60   6 2.62   6 2.62
                            12 2.62  12 2.62   4 2.65   4 2.65
   4  0.500  0.500  0.005-   1 2.58   7 2.58   7 2.58   1 2.58  10 2.60  10 2.60  10 2.60  10 2.60
                             9 2.65   3 2.65   9 2.65   3 2.65
   5  0.500  0.500  0.328-   1 2.58   7 2.58   7 2.58   1 2.58  11 2.60  11 2.60  11 2.60  11 2.60
                             8 2.65   2 2.65   8 2.65   2 2.65
   6  0.500  0.500  0.667-  12 2.60  12 2.60  12 2.60  12 2.60   9 2.62   3 2.62   3 2.62   9 2.62
                             2 2.62   8 2.62   2 2.62   8 2.62
   7  0.500  0.000  0.167-   4 2.58   4 2.58   5 2.58   5 2.58   1 2.60   1 2.60   1 2.60   1 2.60
                            10 2.63  10 2.63  11 2.63  11 2.63
   8  0.500  0.000  0.499-  11 2.59  11 2.59   2 2.60   2 2.60   2 2.60   2 2.60  12 2.62  12 2.62
                             6 2.62   6 2.62   5 2.65   5 2.65
   9  0.500  0.000  0.834-  10 2.59  10 2.59   3 2.60   3 2.60   3 2.60   3 2.60   6 2.62   6 2.62
                            12 2.62  12 2.62   4 2.65   4 2.65
  10  0.000  0.000  0.998-   3 2.59   9 2.59   3 2.59   9 2.59   4 2.60   4 2.60   4 2.60   4 2.60
                             1 2.63   7 2.63   7 2.63   1 2.63
  11  0.000  0.000  0.335-   2 2.59   8 2.59   2 2.59   8 2.59   5 2.60   5 2.60   5 2.60   5 2.60
                             1 2.63   7 2.63   7 2.63   1 2.63
  12  0.000  0.000  0.667-   6 2.60   6 2.60   6 2.60   6 2.60   2 2.62   8 2.62   8 2.62   2 2.62
                             3 2.62   3 2.62   9 2.62   9 2.62
 
  LATTYP: Found a simple tetragonal cell.
 ALAT       =     3.6773501188
 C/A-ratio  =     3.0364910462
  
  Lattice vectors:
  
 A1 = (   3.6773501188,   0.0000000000,   0.0000000000)
 A2 = (   0.0000000000,   3.6773501188,   0.0000000000)
 A3 = (   0.0000000000,   0.0000000000,  11.1662407095)


Analysis of symmetry for initial positions (statically):
=====================================================================
 Subroutine PRICEL returns:
 Original cell was already a primitive cell.
 

 Routine SETGRP: Setting up the symmetry group for a 
 simple tetragonal supercell.


 Subroutine GETGRP returns: Found  8 space group operations
 (whereof  8 operations were pure point group operations)
 out of a pool of 16 trial point group operations.


The static configuration has the point symmetry C_4v.


Analysis of symmetry for dynamics (positions and initial velocities):
=====================================================================
 Subroutine PRICEL returns:
 Original cell was already a primitive cell.
 

 Routine SETGRP: Setting up the symmetry group for a 
 simple tetragonal supercell.


 Subroutine GETGRP returns: Found  8 space group operations
 (whereof  8 operations were pure point group operations)
 out of a pool of 16 trial point group operations.


The dynamic configuration has the point symmetry C_4v.


Analysis of structural, dynamic, and magnetic symmetry:
=====================================================================
 Subroutine PRICEL returns:
 Original cell was already a primitive cell.
 

 Routine SETGRP: Setting up the symmetry group for a 
 simple tetragonal supercell.


 Subroutine GETGRP returns: Found  8 space group operations
 (whereof  8 operations were pure point group operations)
 out of a pool of 16 trial point group operations.


The overall configuration has the point symmetry C_4v.


 Subroutine INISYM returns: Found  8 space group operations
 (whereof  8 operations are pure point group operations),
 and found     1 'primitive' translations


----------------------------------------------------------------------------------------

                                     Primitive cell                                     

  volume of cell :     151.0000

  direct lattice vectors                    reciprocal lattice vectors
     3.677350119  0.000000000  0.000000000     0.271934944  0.000000000  0.000000000
     0.000000000  3.677350119  0.000000000     0.000000000  0.271934944  0.000000000
     0.000000000  0.000000000 11.166240709     0.000000000  0.000000000  0.089555655

  length of vectors
     3.677350119  3.677350119 11.166240709     0.271934944  0.271934944  0.089555655

  position of ions in fractional coordinates (direct lattice)
     0.000000000  0.500000000  0.166628875
     0.000000000  0.500000000  0.499379400
     0.000000000  0.500000000  0.833997229
     0.500000000  0.500000000  0.005115946
     0.500000000  0.500000000  0.328186211
     0.500000000  0.500000000  0.666702111
     0.500000000  0.000000000  0.166628875
     0.500000000  0.000000000  0.499379400
     0.500000000  0.000000000  0.833997229
     0.000000000  0.000000000  0.997860818
     0.000000000  0.000000000  0.335437392
     0.000000000  0.000000000  0.666686514

  ion indices of the primitive-cell ions
   primitive index   ion index
                 1           1
                 2           2
                 3           3
                 4           4
                 5           5
                 6           6
                 7           7
                 8           8
                 9           9
                10          10
                11          11
                12          12

----------------------------------------------------------------------------------------

 
 
 KPOINTS: pymatgen with grid density = 8800 / numb

Automatic generation of k-mesh.
 Grid dimensions read from file:
 generate k-points for:   13   13    4

 Generating k-lattice:

  Cartesian coordinates                     Fractional coordinates (reciprocal lattice)
     0.020918073  0.000000000  0.000000000     0.076923077  0.000000000  0.000000000
     0.000000000  0.020918073  0.000000000     0.000000000  0.076923077  0.000000000
     0.000000000  0.000000000  0.022388914     0.000000000  0.000000000  0.250000000

  Length of vectors
     0.020918073  0.020918073  0.022388914

  Shift w.r.t. Gamma in fractional coordinates (k-lattice)
     0.000000000  0.000000000  0.000000000

 
 Subroutine IBZKPT returns following result:
 ===========================================
 
 Found     84 irreducible k-points:
 
 Following reciprocal coordinates:
            Coordinates               Weight
  0.000000  0.000000  0.000000      1.000000
  0.076923  0.000000  0.000000      4.000000
  0.153846  0.000000  0.000000      4.000000
  0.230769  0.000000  0.000000      4.000000
  0.307692  0.000000  0.000000      4.000000
  0.384615  0.000000  0.000000      4.000000
  0.461538  0.000000  0.000000      4.000000
  0.076923  0.076923  0.000000      4.000000
  0.153846  0.076923  0.000000      8.000000
  0.230769  0.076923  0.000000      8.000000
  0.307692  0.076923  0.000000      8.000000
  0.384615  0.076923  0.000000      8.000000
  0.461538  0.076923  0.000000      8.000000
  0.153846  0.153846  0.000000      4.000000
  0.230769  0.153846  0.000000      8.000000
  0.307692  0.153846  0.000000      8.000000
  0.384615  0.153846  0.000000      8.000000
  0.461538  0.153846  0.000000      8.000000
  0.230769  0.230769  0.000000      4.000000
  0.307692  0.230769  0.000000      8.000000
  0.384615  0.230769  0.000000      8.000000
  0.461538  0.230769  0.000000      8.000000
  0.307692  0.307692  0.000000      4.000000
  0.384615  0.307692  0.000000      8.000000
  0.461538  0.307692  0.000000      8.000000
  0.384615  0.384615  0.000000      4.000000
  0.461538  0.384615  0.000000      8.000000
  0.461538  0.461538  0.000000      4.000000
  0.000000  0.000000  0.250000      2.000000
  0.076923  0.000000  0.250000      8.000000
  0.153846  0.000000  0.250000      8.000000
  0.230769  0.000000  0.250000      8.000000
  0.307692  0.000000  0.250000      8.000000
  0.384615  0.000000  0.250000      8.000000
  0.461538  0.000000  0.250000      8.000000
  0.076923  0.076923  0.250000      8.000000
  0.153846  0.076923  0.250000     16.000000
  0.230769  0.076923  0.250000     16.000000
  0.307692  0.076923  0.250000     16.000000
  0.384615  0.076923  0.250000     16.000000
  0.461538  0.076923  0.250000     16.000000
  0.153846  0.153846  0.250000      8.000000
  0.230769  0.153846  0.250000     16.000000
  0.307692  0.153846  0.250000     16.000000
  0.384615  0.153846  0.250000     16.000000
  0.461538  0.153846  0.250000     16.000000
  0.230769  0.230769  0.250000      8.000000
  0.307692  0.230769  0.250000     16.000000
  0.384615  0.230769  0.250000     16.000000
  0.461538  0.230769  0.250000     16.000000
  0.307692  0.307692  0.250000      8.000000
  0.384615  0.307692  0.250000     16.000000
  0.461538  0.307692  0.250000     16.000000
  0.384615  0.384615  0.250000      8.000000
  0.461538  0.384615  0.250000     16.000000
  0.461538  0.461538  0.250000      8.000000
  0.000000  0.000000  0.500000      1.000000
  0.076923  0.000000  0.500000      4.000000
  0.153846  0.000000  0.500000      4.000000
  0.230769  0.000000  0.500000      4.000000
  0.307692  0.000000  0.500000      4.000000
  0.384615  0.000000  0.500000      4.000000
  0.461538  0.000000  0.500000      4.000000
  0.076923  0.076923  0.500000      4.000000
  0.153846  0.076923  0.500000      8.000000
  0.230769  0.076923  0.500000      8.000000
  0.307692  0.076923  0.500000      8.000000
  0.384615  0.076923  0.500000      8.000000
  0.461538  0.076923  0.500000      8.000000
  0.153846  0.153846  0.500000      4.000000
  0.230769  0.153846  0.500000      8.000000
  0.307692  0.153846  0.500000      8.000000
  0.384615  0.153846  0.500000      8.000000
  0.461538  0.153846  0.500000      8.000000
  0.230769  0.230769  0.500000      4.000000
  0.307692  0.230769  0.500000      8.000000
  0.384615  0.230769  0.500000      8.000000
  0.461538  0.230769  0.500000      8.000000
  0.307692  0.307692  0.500000      4.000000
  0.384615  0.307692  0.500000      8.000000
  0.461538  0.307692  0.500000      8.000000
  0.384615  0.384615  0.500000      4.000000
  0.461538  0.384615  0.500000      8.000000
  0.461538  0.461538  0.500000      4.000000
 
 Following cartesian coordinates:
            Coordinates               Weight
  0.000000  0.000000  0.000000      1.000000
  0.020918  0.000000  0.000000      4.000000
  0.041836  0.000000  0.000000      4.000000
  0.062754  0.000000  0.000000      4.000000
  0.083672  0.000000  0.000000      4.000000
  0.104590  0.000000  0.000000      4.000000
  0.125508  0.000000  0.000000      4.000000
  0.020918  0.020918  0.000000      4.000000
  0.041836  0.020918  0.000000      8.000000
  0.062754  0.020918  0.000000      8.000000
  0.083672  0.020918  0.000000      8.000000
  0.104590  0.020918  0.000000      8.000000
  0.125508  0.020918  0.000000      8.000000
  0.041836  0.041836  0.000000      4.000000
  0.062754  0.041836  0.000000      8.000000
  0.083672  0.041836  0.000000      8.000000
  0.104590  0.041836  0.000000      8.000000
  0.125508  0.041836  0.000000      8.000000
  0.062754  0.062754  0.000000      4.000000
  0.083672  0.062754  0.000000      8.000000
  0.104590  0.062754  0.000000      8.000000
  0.125508  0.062754  0.000000      8.000000
  0.083672  0.083672  0.000000      4.000000
  0.104590  0.083672  0.000000      8.000000
  0.125508  0.083672  0.000000      8.000000
  0.104590  0.104590  0.000000      4.000000
  0.125508  0.104590  0.000000      8.000000
  0.125508  0.125508  0.000000      4.000000
  0.000000  0.000000  0.022389      2.000000
  0.020918  0.000000  0.022389      8.000000
  0.041836  0.000000  0.022389      8.000000
  0.062754  0.000000  0.022389      8.000000
  0.083672  0.000000  0.022389      8.000000
  0.104590  0.000000  0.022389      8.000000
  0.125508  0.000000  0.022389      8.000000
  0.020918  0.020918  0.022389      8.000000
  0.041836  0.020918  0.022389     16.000000
  0.062754  0.020918  0.022389     16.000000
  0.083672  0.020918  0.022389     16.000000
  0.104590  0.020918  0.022389     16.000000
  0.125508  0.020918  0.022389     16.000000
  0.041836  0.041836  0.022389      8.000000
  0.062754  0.041836  0.022389     16.000000
  0.083672  0.041836  0.022389     16.000000
  0.104590  0.041836  0.022389     16.000000
  0.125508  0.041836  0.022389     16.000000
  0.062754  0.062754  0.022389      8.000000
  0.083672  0.062754  0.022389     16.000000
  0.104590  0.062754  0.022389     16.000000
  0.125508  0.062754  0.022389     16.000000
  0.083672  0.083672  0.022389      8.000000
  0.104590  0.083672  0.022389     16.000000
  0.125508  0.083672  0.022389     16.000000
  0.104590  0.104590  0.022389      8.000000
  0.125508  0.104590  0.022389     16.000000
  0.125508  0.125508  0.022389      8.000000
  0.000000  0.000000  0.044778      1.000000
  0.020918  0.000000  0.044778      4.000000
  0.041836  0.000000  0.044778      4.000000
  0.062754  0.000000  0.044778      4.000000
  0.083672  0.000000  0.044778      4.000000
  0.104590  0.000000  0.044778      4.000000
  0.125508  0.000000  0.044778      4.000000
  0.020918  0.020918  0.044778      4.000000
  0.041836  0.020918  0.044778      8.000000
  0.062754  0.020918  0.044778      8.000000
  0.083672  0.020918  0.044778      8.000000
  0.104590  0.020918  0.044778      8.000000
  0.125508  0.020918  0.044778      8.000000
  0.041836  0.041836  0.044778      4.000000
  0.062754  0.041836  0.044778      8.000000
  0.083672  0.041836  0.044778      8.000000
  0.104590  0.041836  0.044778      8.000000
  0.125508  0.041836  0.044778      8.000000
  0.062754  0.062754  0.044778      4.000000
  0.083672  0.062754  0.044778      8.000000
  0.104590  0.062754  0.044778      8.000000
  0.125508  0.062754  0.044778      8.000000
  0.083672  0.083672  0.044778      4.000000
  0.104590  0.083672  0.044778      8.000000
  0.125508  0.083672  0.044778      8.000000
  0.104590  0.104590  0.044778      4.000000
  0.125508  0.104590  0.044778      8.000000
  0.125508  0.125508  0.044778      4.000000
 


--------------------------------------------------------------------------------------------------------




 Dimension of arrays:
   k-points           NKPTS =     84   k-points in BZ     NKDIM =     84   number of bands    NBANDS=     96
   number of dos      NEDOS =    301   number of ions     NIONS =     12
   non local maximal  LDIM  =      6   non local SUM 2l+1 LMDIM =     18
   total plane-waves  NPLWV =  65856
   max r-space proj   IRMAX =      1   max aug-charges    IRDMAX=  26612
   dimension x,y,z NGX =    28 NGY =   28 NGZ =   84
   dimension x,y,z NGXF=    56 NGYF=   56 NGZF=  168
   support grid    NGXF=    56 NGYF=   56 NGZF=  168
   ions per type =               9   3
   NGX,Y,Z   is equivalent  to a cutoff of  12.66, 12.66, 12.51 a.u.
   NGXF,Y,Z  is equivalent  to a cutoff of  25.32, 25.32, 25.01 a.u.

 SYSTEM =  unknown system                          
 POSCAR =  Fe9 Pt3                                 

 Startparameter for this run:
   NWRITE =      2    write-flag & timer
   PREC   = accura    normal or accurate (medium, high low for compatibility)
   ISTART =      0    job   : 0-new  1-cont  2-samecut
   ICHARG =      2    charge: 1-file 2-atom 10-const
   ISPIN  =      2    spin polarized calculation?
   LNONCOLLINEAR =      F non collinear calculations
   LSORBIT =      F    spin-orbit coupling
   INIWAV =      1    electr: 0-lowe 1-rand  2-diag
   LASPH  =      F    aspherical Exc in radial PAW
 Electronic Relaxation 1
   ENCUT  =  520.0 eV  38.22 Ry    6.18 a.u.   6.84  6.84 20.76*2*pi/ulx,y,z
   ENINI  =  520.0     initial cutoff
   ENAUG  =  578.3 eV  augmentation charge cutoff
   NELM   =    200;   NELMIN=  2; NELMDL=  0     # of ELM steps 
   EDIFF  = 0.1E-05   stopping-criterion for ELM
   LREAL  =      F    real-space projection
   NLSPLINE    = F    spline interpolate recip. space projectors
   LCOMPAT=      F    compatible to vasp.4.4
   GGA_COMPAT  = T    GGA compatible to vasp.4.4-vasp.4.6
   LMAXPAW     = -100 max onsite density
   LMAXMIX     =    2 max onsite mixed and CHGCAR
   VOSKOWN=      0    Vosko Wilk Nusair interpolation
   ROPT   =    0.00000   0.00000
 Ionic relaxation
   EDIFFG = -.1E-01   stopping-criterion for IOM
   NSW    =    100    number of steps for IOM
   NBLOCK =      1;   KBLOCK =    100    inner block; outer block 
   IBRION =      2    ionic relax: 0-MD 1-quasi-New 2-CG
   NFREE  =      1    steps in history (QN), initial steepest desc. (CG)
   ISIF   =      4    stress and relaxation
   IWAVPR =     11    prediction:  0-non 1-charg 2-wave 3-comb
   ISYM   =      2    0-nonsym 1-usesym 2-fastsym
   LCORR  =      T    Harris-Foulkes like correction to forces

   POTIM  = 0.5000    time-step for ionic-motion
   TEIN   =    0.0    initial temperature
   TEBEG  =    0.0;   TEEND  =   0.0 temperature during run
   SMASS  =  -3.00    Nose mass-parameter (am)
   estimated Nose-frequenzy (Omega)   =  0.10E-29 period in steps = 0.13E+47 mass=  -0.309E-27a.u.
   SCALEE = 1.0000    scale energy and forces
   NPACO  =    256;   APACO  = 10.0  distance and # of slots for P.C.
   PSTRESS=    0.0 pullay stress

  Mass of Ions in am
   POMASS =  55.85195.08
  Ionic Valenz
   ZVAL   =  14.00 10.00
  Atomic Wigner-Seitz radii
   RWIGS  =  -1.00 -1.00
  virtual crystal weights 
   VCA    =   1.00  1.00
   NELECT =     156.0000    total number of electrons
   NUPDOWN=      -1.0000    fix difference up-down

 DOS related values:
   EMIN   =  10.00;   EMAX   =-10.00  energy-range for DOS
   EFERMI =   0.00;   METHOD = LEGACY      
   ISMEAR =     1;   SIGMA  =   0.20  broadening in eV -4-tet -1-fermi 0-gaus

 Electronic relaxation 2 (details)
   IALGO  =     58    algorithm
   LDIAG  =      T    sub-space diagonalisation (order eigenvalues)
   LSUBROT=      F    optimize rotation matrix (better conditioning)
   TURBO    =      0    0=normal 1=particle mesh
   IRESTART =      0    0=no restart 2=restart with 2 vectors
   NREBOOT  =      0    no. of reboots
   NMIN     =      0    reboot dimension
   EREF     =   0.00    reference energy to select bands
   IMIX   =      4    mixing-type and parameters
     AMIX     =   0.40;   BMIX     =  1.00
     AMIX_MAG =   1.60;   BMIX_MAG =  1.00
     AMIN     =   0.10
     WC   =   100.;   INIMIX=   1;  MIXPRE=   1;  MAXMIX= -45

 Intra band minimization:
   WEIMIN = 0.0010     energy-eigenvalue tresh-hold
   EBREAK =  0.26E-08  absolut break condition
   DEPER  =   0.30     relativ break condition  

   TIME   =   0.40     timestep for ELM

  volume/ion in A,a.u.               =      12.58        84.92
  Fermi-wavevector in a.u.,A,eV,Ry     =   1.654972  3.127444 37.265448  2.738933
  Thomas-Fermi vector in A             =   2.743148
 
 Write flags
   LWAVE        =      F    write WAVECAR
   LDOWNSAMPLE  =      F    k-point downsampling of WAVECAR
   LCHARG       =      T    write CHGCAR
   LVTOT        =      F    write LOCPOT, total local potential
   LVHAR        =      F    write LOCPOT, Hartree potential only
   WRT_POTENTIAL= false  ! write potential to hdf5 file
   LELF         =      F    write electronic localiz. function (ELF)
   LORBIT       =     11    0 simple, 1 ext, 2 COOP (PROOUT), +10 PAW based schemes


 Dipole corrections
   LMONO      =      F    monopole corrections only (constant potential shift)
   LDIPOL     =      F    correct potential (dipole corrections)
   IDIPOL     =      0    1-x, 2-y, 3-z, 4-all directions 
   EPSILON    =  1.0000000 bulk dielectric constant
   LVACPOTAV  =      F  vacuum potentials using an averaging scheme for the charge density
   VACPOTFLAT =  0.1000000 required flatness to determine vacuum potential
 Exchange correlation treatment:
   GGA     = PE    functional components
   XC_C    = 1    coefficients multiplying the functional components
   LIBXC   =     F    Libxc                    
   VOSKOWN =     0    Vosko Wilk Nusair interpolation
   LHFCALC =     F    Hartree Fock is set to
   LHFONE  =     F    Hartree Fock one center treatment
   AEXX    =    0.0000 exact exchange contribution

 Parameters of functionals:
   PE:
     No parameter
 
 Van der Waals corrections
   IVDW    =     0    specifies the selected vdW correction

 Linear response parameters
   LEPSILON=     F    determine dielectric tensor
   LRPA    =     F    only Hartree local field effects (RPA)
   LNABLA  =     F    use nabla operator in PAW spheres
   LVEL    =     F    velocity operator in full k-point grid
   CSHIFT  =0.1000    complex shift for real part using Kramers Kronig
   OMEGAMAX=  -1.0    maximum frequency
   DEG_THRESHOLD= 0.2000000E-02 threshold for treating states as degnerate
   RTIME   =   -0.100 relaxation time in fs
  (WPLASMAI=    0.000 imaginary part of plasma frequency in eV, 0.658/RTIME)
   DFIELD  = 0.0000000 0.0000000 0.0000000 field for delta impulse in time
 
  Optional k-point grid parameters
   LKPOINTS_OPT  =     F    use optional k-point grid
   KPOINTS_OPT_MODE=     1    mode for optional k-point grid
 
 Orbital magnetization related:
   ORBITALMAG=     F  switch on orbital magnetization
   LCHIMAG   =     F  perturbation theory with respect to B field
   DQ        =  0.001000  dq finite difference perturbation B field
   LLRAUG    =     F  two centre corrections for induced B field
   LBONE     =     F  B-component reconstruction in AE one-centre
   LVGVCALC  =     T  calculate vGv susceptibility
   LVGVAPPL  =     F  apply vGv susceptibility instead of pGv for G=0

 Random number generation:
   RANDOM_GENERATOR = DEFAULT
   PCG_SEED         = not used


--------------------------------------------------------------------------------------------------------


 conjugate gradient relaxation of ions
 charge density and potential will be updated during run
 spin polarized calculation
 Conjugate gradient for all bands (Freysoldt, et al. PRB 79, 241103 (2009))
 preconditioned conjugated gradient                                        
 perform sub-space diagonalisation
    before iterative eigenvector-optimisation
 modified Broyden-mixing scheme, WC =      100.0
 initial mixing is a Kerker type mixing with AMIX =  0.4000 and BMIX =      1.0000
 Hartree-type preconditioning will be used
 using additional bands           18
 reciprocal scheme for non local part
 use partial core corrections
 no Harris-corrections to forces 
 use gradient corrections 
 use of overlap-Matrix (Vanderbilt PP)
 Methfessel and Paxton  Order N= 1 SIGMA  =   0.20


--------------------------------------------------------------------------------------------------------


  energy-cutoff  :      520.00
  volume of cell :      151.00
      direct lattice vectors                 reciprocal lattice vectors
     3.677350119  0.000000000  0.000000000     0.271934944  0.000000000  0.000000000
     0.000000000  3.677350119  0.000000000     0.000000000  0.271934944  0.000000000
     0.000000000  0.000000000 11.166240709     0.000000000  0.000000000  0.089555655

  length of vectors
     3.677350119  3.677350119 11.166240709     0.271934944  0.271934944  0.089555655


 
 k-points in units of 2pi/SCALE and weight: pymatgen with grid density = 8800 / numb
   0.00000000  0.00000000  0.00000000       0.001
   0.02091807  0.00000000  0.00000000       0.006
   0.04183615  0.00000000  0.00000000       0.006
   0.06275422  0.00000000  0.00000000       0.006
   0.08367229  0.00000000  0.00000000       0.006
   0.10459036  0.00000000  0.00000000       0.006
   0.12550844  0.00000000  0.00000000       0.006
   0.02091807  0.02091807  0.00000000       0.006
   0.04183615  0.02091807  0.00000000       0.012
   0.06275422  0.02091807  0.00000000       0.012
   0.08367229  0.02091807  0.00000000       0.012
   0.10459036  0.02091807  0.00000000       0.012
   0.12550844  0.02091807  0.00000000       0.012
   0.04183615  0.04183615  0.00000000       0.006
   0.06275422  0.04183615  0.00000000       0.012
   0.08367229  0.04183615  0.00000000       0.012
   0.10459036  0.04183615  0.00000000       0.012
   0.12550844  0.04183615  0.00000000       0.012
   0.06275422  0.06275422  0.00000000       0.006
   0.08367229  0.06275422  0.00000000       0.012
   0.10459036  0.06275422  0.00000000       0.012
   0.12550844  0.06275422  0.00000000       0.012
   0.08367229  0.08367229  0.00000000       0.006
   0.10459036  0.08367229  0.00000000       0.012
   0.12550844  0.08367229  0.00000000       0.012
   0.10459036  0.10459036  0.00000000       0.006
   0.12550844  0.10459036  0.00000000       0.012
   0.12550844  0.12550844  0.00000000       0.006
   0.00000000  0.00000000  0.02238891       0.003
   0.02091807  0.00000000  0.02238891       0.012
   0.04183615  0.00000000  0.02238891       0.012
   0.06275422  0.00000000  0.02238891       0.012
   0.08367229  0.00000000  0.02238891       0.012
   0.10459036  0.00000000  0.02238891       0.012
   0.12550844  0.00000000  0.02238891       0.012
   0.02091807  0.02091807  0.02238891       0.012
   0.04183615  0.02091807  0.02238891       0.024
   0.06275422  0.02091807  0.02238891       0.024
   0.08367229  0.02091807  0.02238891       0.024
   0.10459036  0.02091807  0.02238891       0.024
   0.12550844  0.02091807  0.02238891       0.024
   0.04183615  0.04183615  0.02238891       0.012
   0.06275422  0.04183615  0.02238891       0.024
   0.08367229  0.04183615  0.02238891       0.024
   0.10459036  0.04183615  0.02238891       0.024
   0.12550844  0.04183615  0.02238891       0.024
   0.06275422  0.06275422  0.02238891       0.012
   0.08367229  0.06275422  0.02238891       0.024
   0.10459036  0.06275422  0.02238891       0.024
   0.12550844  0.06275422  0.02238891       0.024
   0.08367229  0.08367229  0.02238891       0.012
   0.10459036  0.08367229  0.02238891       0.024
   0.12550844  0.08367229  0.02238891       0.024
   0.10459036  0.10459036  0.02238891       0.012
   0.12550844  0.10459036  0.02238891       0.024
   0.12550844  0.12550844  0.02238891       0.012
   0.00000000  0.00000000  0.04477783       0.001
   0.02091807  0.00000000  0.04477783       0.006
   0.04183615  0.00000000  0.04477783       0.006
   0.06275422  0.00000000  0.04477783       0.006
   0.08367229  0.00000000  0.04477783       0.006
   0.10459036  0.00000000  0.04477783       0.006
   0.12550844  0.00000000  0.04477783       0.006
   0.02091807  0.02091807  0.04477783       0.006
   0.04183615  0.02091807  0.04477783       0.012
   0.06275422  0.02091807  0.04477783       0.012
   0.08367229  0.02091807  0.04477783       0.012
   0.10459036  0.02091807  0.04477783       0.012
   0.12550844  0.02091807  0.04477783       0.012
   0.04183615  0.04183615  0.04477783       0.006
   0.06275422  0.04183615  0.04477783       0.012
   0.08367229  0.04183615  0.04477783       0.012
   0.10459036  0.04183615  0.04477783       0.012
   0.12550844  0.04183615  0.04477783       0.012
   0.06275422  0.06275422  0.04477783       0.006
   0.08367229  0.06275422  0.04477783       0.012
   0.10459036  0.06275422  0.04477783       0.012
   0.12550844  0.06275422  0.04477783       0.012
   0.08367229  0.08367229  0.04477783       0.006
   0.10459036  0.08367229  0.04477783       0.012
   0.12550844  0.08367229  0.04477783       0.012
   0.10459036  0.10459036  0.04477783       0.006
   0.12550844  0.10459036  0.04477783       0.012
   0.12550844  0.12550844  0.04477783       0.006
 
 k-points in reciprocal lattice and weights: pymatgen with grid density = 8800 / numb
   0.00000000  0.00000000  0.00000000       0.001
   0.07692308  0.00000000  0.00000000       0.006
   0.15384615  0.00000000  0.00000000       0.006
   0.23076923  0.00000000  0.00000000       0.006
   0.30769231  0.00000000  0.00000000       0.006
   0.38461538  0.00000000  0.00000000       0.006
   0.46153846  0.00000000  0.00000000       0.006
   0.07692308  0.07692308  0.00000000       0.006
   0.15384615  0.07692308  0.00000000       0.012
   0.23076923  0.07692308  0.00000000       0.012
   0.30769231  0.07692308  0.00000000       0.012
   0.38461538  0.07692308  0.00000000       0.012
   0.46153846  0.07692308  0.00000000       0.012
   0.15384615  0.15384615  0.00000000       0.006
   0.23076923  0.15384615  0.00000000       0.012
   0.30769231  0.15384615  0.00000000       0.012
   0.38461538  0.15384615  0.00000000       0.012
   0.46153846  0.15384615  0.00000000       0.012
   0.23076923  0.23076923  0.00000000       0.006
   0.30769231  0.23076923  0.00000000       0.012
   0.38461538  0.23076923  0.00000000       0.012
   0.46153846  0.23076923  0.00000000       0.012
   0.30769231  0.30769231  0.00000000       0.006
   0.38461538  0.30769231  0.00000000       0.012
   0.46153846  0.30769231  0.00000000       0.012
   0.38461538  0.38461538  0.00000000       0.006
   0.46153846  0.38461538  0.00000000       0.012
   0.46153846  0.46153846  0.00000000       0.006
   0.00000000  0.00000000  0.25000000       0.003
   0.07692308  0.00000000  0.25000000       0.012
   0.15384615  0.00000000  0.25000000       0.012
   0.23076923  0.00000000  0.25000000       0.012
   0.30769231  0.00000000  0.25000000       0.012
   0.38461538  0.00000000  0.25000000       0.012
   0.46153846  0.00000000  0.25000000       0.012
   0.07692308  0.07692308  0.25000000       0.012
   0.15384615  0.07692308  0.25000000       0.024
   0.23076923  0.07692308  0.25000000       0.024
   0.30769231  0.07692308  0.25000000       0.024
   0.38461538  0.07692308  0.25000000       0.024
   0.46153846  0.07692308  0.25000000       0.024
   0.15384615  0.15384615  0.25000000       0.012
   0.23076923  0.15384615  0.25000000       0.024
   0.30769231  0.15384615  0.25000000       0.024
   0.38461538  0.15384615  0.25000000       0.024
   0.46153846  0.15384615  0.25000000       0.024
   0.23076923  0.23076923  0.25000000       0.012
   0.30769231  0.23076923  0.25000000       0.024
   0.38461538  0.23076923  0.25000000       0.024
   0.46153846  0.23076923  0.25000000       0.024
   0.30769231  0.30769231  0.25000000       0.012
   0.38461538  0.30769231  0.25000000       0.024
   0.46153846  0.30769231  0.25000000       0.024
   0.38461538  0.38461538  0.25000000       0.012
   0.46153846  0.38461538  0.25000000       0.024
   0.46153846  0.46153846  0.25000000       0.012
   0.00000000  0.00000000  0.50000000       0.001
   0.07692308  0.00000000  0.50000000       0.006
   0.15384615  0.00000000  0.50000000       0.006
   0.23076923  0.00000000  0.50000000       0.006
   0.30769231  0.00000000  0.50000000       0.006
   0.38461538  0.00000000  0.50000000       0.006
   0.46153846  0.00000000  0.50000000       0.006
   0.07692308  0.07692308  0.50000000       0.006
   0.15384615  0.07692308  0.50000000       0.012
   0.23076923  0.07692308  0.50000000       0.012
   0.30769231  0.07692308  0.50000000       0.012
   0.38461538  0.07692308  0.50000000       0.012
   0.46153846  0.07692308  0.50000000       0.012
   0.15384615  0.15384615  0.50000000       0.006
   0.23076923  0.15384615  0.50000000       0.012
   0.30769231  0.15384615  0.50000000       0.012
   0.38461538  0.15384615  0.50000000       0.012
   0.46153846  0.15384615  0.50000000       0.012
   0.23076923  0.23076923  0.50000000       0.006
   0.30769231  0.23076923  0.50000000       0.012
   0.38461538  0.23076923  0.50000000       0.012
   0.46153846  0.23076923  0.50000000       0.012
   0.30769231  0.30769231  0.50000000       0.006
   0.38461538  0.30769231  0.50000000       0.012
   0.46153846  0.30769231  0.50000000       0.012
   0.38461538  0.38461538  0.50000000       0.006
   0.46153846  0.38461538  0.50000000       0.012
   0.46153846  0.46153846  0.50000000       0.006
 
 position of ions in fractional coordinates (direct lattice) 
   0.00000000  0.50000000  0.16662888
   0.00000000  0.50000000  0.49937940
   0.00000000  0.50000000  0.83399723
   0.50000000  0.50000000  0.00511595
   0.50000000  0.50000000  0.32818621
   0.50000000  0.50000000  0.66670211
   0.50000000  0.00000000  0.16662888
   0.50000000  0.00000000  0.49937940
   0.50000000  0.00000000  0.83399723
   0.00000000  0.00000000  0.99786082
   0.00000000  0.00000000  0.33543739
   0.00000000  0.00000000  0.66668651
 
 position of ions in cartesian coordinates  (Angst):
   0.00000000  1.83867506  1.86061813
   0.00000000  1.83867506  5.57619058
   0.00000000  1.83867506  9.31261381
   1.83867506  1.83867506  0.05712588
   1.83867506  1.83867506  3.66460623
   1.83867506  1.83867506  7.44455625
   1.83867506  0.00000000  1.86061813
   1.83867506  0.00000000  5.57619058
   1.83867506  0.00000000  9.31261381
   0.00000000  0.00000000 11.14235409
   0.00000000  0.00000000  3.74557466
   0.00000000  0.00000000  7.44438210
 


--------------------------------------------------------------------------------------------------------


 k-point     1 :   0.0000 0.0000 0.0000  plane waves:    4049
 k-point     2 :   0.0769 0.0000 0.0000  plane waves:    4051
 k-point     3 :   0.1538 0.0000 0.0000  plane waves:    4057
 k-point     4 :   0.2308 0.0000 0.0000  plane waves:    4048
 k-point     5 :   0.3077 0.0000 0.0000  plane waves:    4056
 k-point     6 :   0.3846 0.0000 0.0000  plane waves:    4074
 k-point     7 :   0.4615 0.0000 0.0000  plane waves:    4072
 k-point     8 :   0.0769 0.0769 0.0000  plane waves:    4061
 k-point     9 :   0.1538 0.0769 0.0000  plane waves:    4041
 k-point    10 :   0.2308 0.0769 0.0000  plane waves:    4052
 k-point    11 :   0.3077 0.0769 0.0000  plane waves:    4070
 k-point    12 :   0.3846 0.0769 0.0000  plane waves:    4072
 k-point    13 :   0.4615 0.0769 0.0000  plane waves:    4064
 k-point    14 :   0.1538 0.1538 0.0000  plane waves:    4059
 k-point    15 :   0.2308 0.1538 0.0000  plane waves:    4063
 k-point    16 :   0.3077 0.1538 0.0000  plane waves:    4064
 k-point    17 :   0.3846 0.1538 0.0000  plane waves:    4055
 k-point    18 :   0.4615 0.1538 0.0000  plane waves:    4054
 k-point    19 :   0.2308 0.2308 0.0000  plane waves:    4062
 k-point    20 :   0.3077 0.2308 0.0000  plane waves:    4069
 k-point    21 :   0.3846 0.2308 0.0000  plane waves:    4075
 k-point    22 :   0.4615 0.2308 0.0000  plane waves:    4081
 k-point    23 :   0.3077 0.3077 0.0000  plane waves:    4084
 k-point    24 :   0.3846 0.3077 0.0000  plane waves:    4084
 k-point    25 :   0.4615 0.3077 0.0000  plane waves:    4080
 k-point    26 :   0.3846 0.3846 0.0000  plane waves:    4086
 k-point    27 :   0.4615 0.3846 0.0000  plane waves:    4068
 k-point    28 :   0.4615 0.4615 0.0000  plane waves:    4092
 k-point    29 :   0.0000 0.0000 0.2500  plane waves:    4078
 k-point    30 :   0.0769 0.0000 0.2500  plane waves:    4073
 k-point    31 :   0.1538 0.0000 0.2500  plane waves:    4049
 k-point    32 :   0.2308 0.0000 0.2500  plane waves:    4053
 k-point    33 :   0.3077 0.0000 0.2500  plane waves:    4053
 k-point    34 :   0.3846 0.0000 0.2500  plane waves:    4065
 k-point    35 :   0.4615 0.0000 0.2500  plane waves:    4068
 k-point    36 :   0.0769 0.0769 0.2500  plane waves:    4067
 k-point    37 :   0.1538 0.0769 0.2500  plane waves:    4057
 k-point    38 :   0.2308 0.0769 0.2500  plane waves:    4054
 k-point    39 :   0.3077 0.0769 0.2500  plane waves:    4062
 k-point    40 :   0.3846 0.0769 0.2500  plane waves:    4062
 k-point    41 :   0.4615 0.0769 0.2500  plane waves:    4064
 k-point    42 :   0.1538 0.1538 0.2500  plane waves:    4045
 k-point    43 :   0.2308 0.1538 0.2500  plane waves:    4058
 k-point    44 :   0.3077 0.1538 0.2500  plane waves:    4058
 k-point    45 :   0.3846 0.1538 0.2500  plane waves:    4067
 k-point    46 :   0.4615 0.1538 0.2500  plane waves:    4060
 k-point    47 :   0.2308 0.2308 0.2500  plane waves:    4068
 k-point    48 :   0.3077 0.2308 0.2500  plane waves:    4075
 k-point    49 :   0.3846 0.2308 0.2500  plane waves:    4068
 k-point    50 :   0.4615 0.2308 0.2500  plane waves:    4071
 k-point    51 :   0.3077 0.3077 0.2500  plane waves:    4065
 k-point    52 :   0.3846 0.3077 0.2500  plane waves:    4078
 k-point    53 :   0.4615 0.3077 0.2500  plane waves:    4074
 k-point    54 :   0.3846 0.3846 0.2500  plane waves:    4075
 k-point    55 :   0.4615 0.3846 0.2500  plane waves:    4079
 k-point    56 :   0.4615 0.4615 0.2500  plane waves:    4079
 k-point    57 :   0.0000 0.0000 0.5000  plane waves:    4090
 k-point    58 :   0.0769 0.0000 0.5000  plane waves:    4098
 k-point    59 :   0.1538 0.0000 0.5000  plane waves:    4054
 k-point    60 :   0.2308 0.0000 0.5000  plane waves:    4058
 k-point    61 :   0.3077 0.0000 0.5000  plane waves:    4068
 k-point    62 :   0.3846 0.0000 0.5000  plane waves:    4060
 k-point    63 :   0.4615 0.0000 0.5000  plane waves:    4058
 k-point    64 :   0.0769 0.0769 0.5000  plane waves:    4078
 k-point    65 :   0.1538 0.0769 0.5000  plane waves:    4054
 k-point    66 :   0.2308 0.0769 0.5000  plane waves:    4062
 k-point    67 :   0.3077 0.0769 0.5000  plane waves:    4060
 k-point    68 :   0.3846 0.0769 0.5000  plane waves:    4050
 k-point    69 :   0.4615 0.0769 0.5000  plane waves:    4054
 k-point    70 :   0.1538 0.1538 0.5000  plane waves:    4052
 k-point    71 :   0.2308 0.1538 0.5000  plane waves:    4050
 k-point    72 :   0.3077 0.1538 0.5000  plane waves:    4062
 k-point    73 :   0.3846 0.1538 0.5000  plane waves:    4070
 k-point    74 :   0.4615 0.1538 0.5000  plane waves:    4072
 k-point    75 :   0.2308 0.2308 0.5000  plane waves:    4056
 k-point    76 :   0.3077 0.2308 0.5000  plane waves:    4068
 k-point    77 :   0.3846 0.2308 0.5000  plane waves:    4072
 k-point    78 :   0.4615 0.2308 0.5000  plane waves:    4076
 k-point    79 :   0.3077 0.3077 0.5000  plane waves:    4064
 k-point    80 :   0.3846 0.3077 0.5000  plane waves:    4066
 k-point    81 :   0.4615 0.3077 0.5000  plane waves:    4082
 k-point    82 :   0.3846 0.3846 0.5000  plane waves:    4098
 k-point    83 :   0.4615 0.3846 0.5000  plane waves:    4080
 k-point    84 :   0.4615 0.4615 0.5000  plane waves:    4086

 maximum and minimum number of plane-waves per node :      4098     4041

 maximum number of plane-waves:      4098
 maximum index in each direction: 
   IXMAX=    6   IYMAX=    6   IZMAX=   20
   IXMIN=   -7   IYMIN=   -7   IZMIN=  -21


 serial   3D FFT for wavefunctions
 parallel 3D FFT for charge:
    minimum data exchange during FFTs selected (reduces bandwidth)


 total amount of memory used by VASP MPI-rank0   244013. kBytes
=======================================================================

   base      :      30000. kBytes
   nonl-proj :     100657. kBytes
   fftplans  :        888. kBytes
   grid      :       6813. kBytes
   one-center:        373. kBytes
   wavefun   :     105282. kBytes
 
     INWAV:  cpu time      0.0001: real time      0.0001
 Broyden mixing: mesh for mixing (old mesh)
   NGX = 13   NGY = 13   NGZ = 41
  (NGX  = 56   NGY  = 56   NGZ  =168)
  gives a total of   6929 points

 initial charge density was supplied:
 charge density of overlapping atoms calculated
 number of electron     156.0000000 magnetization       2.4520000
 charge density for first step will be calculated from the start-wavefunctions


--------------------------------------------------------------------------------------------------------


 Maximum index for augmentation-charges         1052 (set IRDMAX)


--------------------------------------------------------------------------------------------------------


 First call to EWALD:  gamma=   0.333
 Maximum number of real-space cells 4x 4x 2
 Maximum number of reciprocal cells 2x 2x 5

    FEWALD:  cpu time      0.0028: real time      0.0029


--------------------------------------- Ionic step        1  -------------------------------------------




--------------------------------------- Iteration      1(   1)  ---------------------------------------


    POTLOK:  cpu time      0.0343: real time      0.0354
    SETDIJ:  cpu time      0.0115: real time      0.0119
    TRIAL :  cpu time      4.3492: real time      4.3813
    CORREC:  cpu time      0.0038: real time      0.0039
    --------------------------------------------
      LOOP:  cpu time      4.4399: real time      4.5216

 eigenvalue-minimisations  : 32256
 total energy-change (2. order) : 0.1737118E+04  (-0.9372681E+04)
 number of electron     156.0000000 magnetization       2.4520000
 augmentation part      156.0000000 magnetization       2.4520000

 Free energy of the ion-electron system (eV)
  ---------------------------------------------------
  alpha Z        PSCENC =      1127.08695075
  Ewald energy   TEWEN  =    -18285.65973526
  -Hartree energ DENC   =     -5896.05257955
  -exchange      EXHF   =         0.00000000
  -V(xc)+E(xc)   XCENC  =       657.76118187
  PAW double counting   =     20094.78619125   -20818.78908213
  entropy T*S    EENTRO =         0.00187262
  eigenvalues    EBANDS =       553.88054492
  atomic energy  EATOM  =     24304.10294433
  ---------------------------------------------------
  free energy    TOTEN  =      1737.11828881 eV

  energy without entropy =     1737.11641620  energy(sigma->0) =     1737.11766461


--------------------------------------------------------------------------------------------------------




--------------------------------------- Iteration      1(   2)  ---------------------------------------


    TRIAL :  cpu time      4.4092: real time      4.4387
    CORREC:  cpu time      0.0024: real time      0.0024
    --------------------------------------------
      LOOP:  cpu time      4.4333: real time      4.4631

 eigenvalue-minimisations  : 32416
 total energy-change (2. order) :-0.1728067E+04  (-0.1697480E+04)
 number of electron     156.0000000 magnetization       2.4520000
 augmentation part      156.0000000 magnetization       2.4520000

 Free energy of the ion-electron system (eV)
  ---------------------------------------------------
  alpha Z        PSCENC =      1127.08695075
  Ewald energy   TEWEN  =    -18285.65973526
  -Hartree energ DENC   =     -5896.05257955
  -exchange      EXHF   =         0.00000000
  -V(xc)+E(xc)   XCENC  =       657.76118187
  PAW double counting   =     20094.78619125   -20818.78908213
  entropy T*S    EENTRO =        -0.00357338
  eigenvalues    EBANDS =     -1174.18055324
  atomic energy  EATOM  =     24304.10294433
  ---------------------------------------------------
  free energy    TOTEN  =         9.05174465 eV

  energy without entropy =        9.05531803  energy(sigma->0) =        9.05293578


--------------------------------------------------------------------------------------------------------




--------------------------------------- Iteration      1(   3)  ---------------------------------------


    TRIAL :  cpu time      6.5349: real time      6.5838
    CORREC:  cpu time      0.0684: real time      0.0694
    --------------------------------------------
      LOOP:  cpu time      6.6115: real time      6.6747

 eigenvalue-minimisations  : 40608
 total energy-change (2. order) :-0.1118975E+03  (-0.1107063E+03)
 number of electron     156.0000000 magnetization       2.4520000
 augmentation part      156.0000000 magnetization       2.4520000

 Free energy of the ion-electron system (eV)
  ---------------------------------------------------
  alpha Z        PSCENC =      1127.08695075
  Ewald energy   TEWEN  =    -18285.65973526
  -Hartree energ DENC   =     -5896.05257955
  -exchange      EXHF   =         0.00000000
  -V(xc)+E(xc)   XCENC  =       657.76118187
  PAW double counting   =     20094.78619125   -20818.78908213
  entropy T*S    EENTRO =         0.01066439
  eigenvalues    EBANDS =     -1286.09224247
  atomic energy  EATOM  =     24304.10294433
  ---------------------------------------------------
  free energy    TOTEN  =      -102.84570681 eV

  energy without entropy =     -102.85637120  energy(sigma->0) =     -102.84926160


--------------------------------------------------------------------------------------------------------




--------------------------------------- Iteration      1(   4)  ---------------------------------------


    TRIAL :  cpu time     13.2692: real time     13.3383
    CORREC:  cpu time      0.0108: real time      0.0111
    --------------------------------------------
      LOOP:  cpu time     13.3576: real time     13.4276

 eigenvalue-minimisations  : 32736
 total energy-change (2. order) :-0.2330652E+01  (-0.2328618E+01)
 number of electron     156.0000000 magnetization       2.4520000
 augmentation part      156.0000000 magnetization       2.4520000

 Free energy of the ion-electron system (eV)
  ---------------------------------------------------
  alpha Z        PSCENC =      1127.08695075
  Ewald energy   TEWEN  =    -18285.65973526
  -Hartree energ DENC   =     -5896.05257955
  -exchange      EXHF   =         0.00000000
  -V(xc)+E(xc)   XCENC  =       657.76118187
  PAW double counting   =     20094.78619125   -20818.78908213
  entropy T*S    EENTRO =         0.01143447
  eigenvalues    EBANDS =     -1288.42366436
  atomic energy  EATOM  =     24304.10294433
  ---------------------------------------------------
  free energy    TOTEN  =      -105.17635862 eV

  energy without entropy =     -105.18779309  energy(sigma->0) =     -105.18017011


--------------------------------------------------------------------------------------------------------




--------------------------------------- Iteration      1(   5)  ---------------------------------------


    TRIAL :  cpu time      6.5228: real time      6.5744
    CORREC:  cpu time      0.5172: real time      0.5191
    CHARGE:  cpu time      0.5987: real time      0.6036
    --------------------------------------------
      LOOP:  cpu time      7.6469: real time      7.7189

 eigenvalue-minimisations  : 40576
 total energy-change (2. order) :-0.5149479E-01  (-0.5148676E-01)
 number of electron     156.0000183 magnetization       2.0683633
 augmentation part       79.2462641 magnetization       1.4810768

 Free energy of the ion-electron system (eV)
  ---------------------------------------------------
  alpha Z        PSCENC =      1127.08695075
  Ewald energy   TEWEN  =    -18285.65973526
  -Hartree energ DENC   =     -5896.05257955
  -exchange      EXHF   =         0.00000000
  -V(xc)+E(xc)   XCENC  =       657.76118187
  PAW double counting   =     20094.78619125   -20818.78908213
  entropy T*S    EENTRO =         0.01141697
  eigenvalues    EBANDS =     -1288.47514166
  atomic energy  EATOM  =     24304.10294433
  ---------------------------------------------------
  free energy    TOTEN  =      -105.22785342 eV

  energy without entropy =     -105.23927039  energy(sigma->0) =     -105.23165907


--------------------------------------------------------------------------------------------------------




--------------------------------------- Iteration      1(   6)  ---------------------------------------


    POTLOK:  cpu time      0.0309: real time      0.0311
    SETDIJ:  cpu time      0.0134: real time      0.0136
    TRIAL :  cpu time      2.4353: real time      2.4713
    CORREC:  cpu time      1.2078: real time      1.2177
    CHARGE:  cpu time      0.4684: real time      0.4707
    --------------------------------------------
      LOOP:  cpu time      4.1612: real time      4.2165

 eigenvalue-minimisations  :     0
 total energy-change (2. order) : 0.5111606E+02  (-0.2416796E+02)
 number of electron     156.0000190 magnetization       2.0023362
 augmentation part       82.0756680 magnetization       1.5533019

 Free energy of the ion-electron system (eV)
  ---------------------------------------------------
  alpha Z        PSCENC =      1127.08695075
  Ewald energy   TEWEN  =    -18285.65973526
  -Hartree energ DENC   =     -4802.38635441
  -exchange      EXHF   =         0.00000000
  -V(xc)+E(xc)   XCENC  =       611.73809093
  PAW double counting   =     21337.86085391   -22004.75567285
  entropy T*S    EENTRO =         0.01412830
  eigenvalues    EBANDS =     -2342.11028953
  atomic energy  EATOM  =     24304.10294433
  ---------------------------------------------------
  free energy    TOTEN  =       -54.11179517 eV

  energy without entropy =      -54.12592346  energy(sigma->0) =      -54.11650460


--------------------------------------------------------------------------------------------------------




--------------------------------------- Iteration      1(   7)  ---------------------------------------


    POTLOK:  cpu time      0.0323: real time      0.0326
    SETDIJ:  cpu time      0.0319: real time      0.0321
    TRIAL :  cpu time     10.2867: real time     10.3351
    CORREC:  cpu time      1.6964: real time      1.7236
    CHARGE:  cpu time      0.2866: real time      0.2967
    --------------------------------------------
      LOOP:  cpu time     12.3458: real time     12.4457

 eigenvalue-minimisations  :     0
 total energy-change (2. order) :-0.2708154E+02  (-0.5204572E+01)
 number of electron     156.0000192 magnetization       2.1118666
 augmentation part       83.0523612 magnetization       1.5693957

 Free energy of the ion-electron system (eV)
  ---------------------------------------------------
  alpha Z        PSCENC =      1127.08695075
  Ewald energy   TEWEN  =    -18285.65973526
  -Hartree energ DENC   =     -5175.35007999
  -exchange      EXHF   =         0.00000000
  -V(xc)+E(xc)   XCENC  =       627.45046052
  PAW double counting   =     21722.73707372   -22458.34625951
  entropy T*S    EENTRO =         0.01424019
  eigenvalues    EBANDS =     -1943.22881772
  atomic energy  EATOM  =     24304.10294433
  ---------------------------------------------------
  free energy    TOTEN  =       -81.19333487 eV

  energy without entropy =      -81.20757506  energy(sigma->0) =      -81.19808160


--------------------------------------------------------------------------------------------------------




--------------------------------------- Iteration      1(   8)  ---------------------------------------


    POTLOK:  cpu time      0.0319: real time      0.0321
    SETDIJ:  cpu time      0.0204: real time      0.0205
    TRIAL :  cpu time      2.7653: real time      2.7985
    CORREC:  cpu time      0.7721: real time      0.7801
    CHARGE:  cpu time      0.1504: real time      0.1511
    --------------------------------------------
      LOOP:  cpu time      3.7479: real time      3.8074

 eigenvalue-minimisations  :     0
 total energy-change (2. order) :-0.5930370E+01  (-0.3210780E+01)
 number of electron     156.0000195 magnetization       2.0685347
 augmentation part       84.3121173 magnetization       1.5676826

 Free energy of the ion-electron system (eV)
  ---------------------------------------------------
  alpha Z        PSCENC =      1127.08695075
  Ewald energy   TEWEN  =    -18285.65973526
  -Hartree energ DENC   =     -5310.12983083
  -exchange      EXHF   =         0.00000000
  -V(xc)+E(xc)   XCENC  =       633.00170127
  PAW double counting   =     21913.96283554   -22672.09131224
  entropy T*S    EENTRO =         0.01421757
  eigenvalues    EBANDS =     -1797.41149838
  atomic energy  EATOM  =     24304.10294433
  ---------------------------------------------------
  free energy    TOTEN  =       -87.12370463 eV

  energy without entropy =      -87.13792220  energy(sigma->0) =      -87.12844382


--------------------------------------------------------------------------------------------------------




--------------------------------------- Iteration      1(   9)  ---------------------------------------


    POTLOK:  cpu time      0.0217: real time      0.0219
    SETDIJ:  cpu time      0.0081: real time      0.0081
    TRIAL :  cpu time      1.9791: real time      1.9991
    CORREC:  cpu time      0.7681: real time      0.7768
    CHARGE:  cpu time      0.1503: real time      0.1511
    --------------------------------------------
      LOOP:  cpu time      2.9355: real time      2.9793

 eigenvalue-minimisations  :     0
 total energy-change (2. order) :-0.3193811E+01  (-0.9825473E+00)
 number of electron     156.0000195 magnetization       2.0233281
 augmentation part       84.7531092 magnetization       1.5745063

 Free energy of the ion-electron system (eV)
  ---------------------------------------------------
  alpha Z        PSCENC =      1127.08695075
  Ewald energy   TEWEN  =    -18285.65973526
  -Hartree energ DENC   =     -5480.90820631
  -exchange      EXHF   =         0.00000000
  -V(xc)+E(xc)   XCENC  =       640.28284348
  PAW double counting   =     22205.47359598   -22987.12740715
  entropy T*S    EENTRO =         0.01221446
  eigenvalues    EBANDS =     -1613.58271877
  atomic energy  EATOM  =     24304.10294433
  ---------------------------------------------------
  free energy    TOTEN  =       -90.31751538 eV

  energy without entropy =      -90.32972984  energy(sigma->0) =      -90.32158687


--------------------------------------------------------------------------------------------------------




--------------------------------------- Iteration      1(  10)  ---------------------------------------


    POTLOK:  cpu time      0.0217: real time      0.0218
    SETDIJ:  cpu time      0.0080: real time      0.0080
    TRIAL :  cpu time      1.9261: real time      1.9454
    CORREC:  cpu time      0.7701: real time      0.7784
    CHARGE:  cpu time      0.1508: real time      0.1516
    --------------------------------------------
      LOOP:  cpu time      2.8989: real time      2.9279

 eigenvalue-minimisations  :     0
 total energy-change (2. order) :-0.9934364E+00  (-0.5306299E+00)
 number of electron     156.0000195 magnetization       2.0896858
 augmentation part       84.9173334 magnetization       1.6112600

 Free energy of the ion-electron system (eV)
  ---------------------------------------------------
  alpha Z        PSCENC =      1127.08695075
  Ewald energy   TEWEN  =    -18285.65973526
  -Hartree energ DENC   =     -5533.14450970
  -exchange      EXHF   =         0.00000000
  -V(xc)+E(xc)   XCENC  =       642.76779143
  PAW double counting   =     22317.89526726   -23101.36880474
  entropy T*S    EENTRO =         0.01256347
  eigenvalues    EBANDS =     -1563.00307035
  atomic energy  EATOM  =     24304.10294433
  ---------------------------------------------------
  free energy    TOTEN  =       -91.31095183 eV

  energy without entropy =      -91.32351530  energy(sigma->0) =      -91.31513965


--------------------------------------------------------------------------------------------------------




--------------------------------------- Iteration      1(  11)  ---------------------------------------


    POTLOK:  cpu time      0.0218: real time      0.0219
    SETDIJ:  cpu time      0.0081: real time      0.0081
    TRIAL :  cpu time      1.9312: real time      1.9508
    CORREC:  cpu time      0.7651: real time      0.7734
    CHARGE:  cpu time      0.1495: real time      0.1503
    --------------------------------------------
      LOOP:  cpu time      2.8848: real time      2.9267

 eigenvalue-minimisations  :     0
 total energy-change (2. order) :-0.6580915E+00  (-0.2539781E+00)
 number of electron     156.0000195 magnetization       2.1519550
 augmentation part       84.8378308 magnetization       1.6405377

 Free energy of the ion-electron system (eV)
  ---------------------------------------------------
  alpha Z        PSCENC =      1127.08695075
  Ewald energy   TEWEN  =    -18285.65973526
  -Hartree energ DENC   =     -5551.28095732
  -exchange      EXHF   =         0.00000000
  -V(xc)+E(xc)   XCENC  =       643.69042532
  PAW double counting   =     22363.33997621   -23144.38222380
  entropy T*S    EENTRO =         0.01343785
  eigenvalues    EBANDS =     -1548.87898697
  atomic energy  EATOM  =     24304.10294433
  ---------------------------------------------------
  free energy    TOTEN  =       -91.96904328 eV

  energy without entropy =      -91.98248113  energy(sigma->0) =      -91.97352256


--------------------------------------------------------------------------------------------------------




--------------------------------------- Iteration      1(  12)  ---------------------------------------


    POTLOK:  cpu time      0.0216: real time      0.0218
    SETDIJ:  cpu time      0.0081: real time      0.0081
    TRIAL :  cpu time      2.0056: real time      2.0252
    CORREC:  cpu time      0.7621: real time      0.7705
    CHARGE:  cpu time      0.1514: real time      0.1522
    --------------------------------------------
      LOOP:  cpu time      2.9572: real time      3.0003

 eigenvalue-minimisations  :     0
 total energy-change (2. order) :-0.2453618E+00  (-0.3012329E+00)
 number of electron     156.0000194 magnetization       2.1574273
 augmentation part       84.6601493 magnetization       1.6557707

 Free energy of the ion-electron system (eV)
  ---------------------------------------------------
  alpha Z        PSCENC =      1127.08695075
  Ewald energy   TEWEN  =    -18285.65973526
  -Hartree energ DENC   =     -5539.09173548
  -exchange      EXHF   =         0.00000000
  -V(xc)+E(xc)   XCENC  =       643.26667970
  PAW double counting   =     22338.01009736   -23112.76908402
  entropy T*S    EENTRO =         0.01291221
  eigenvalues    EBANDS =     -1567.17396029
  atomic energy  EATOM  =     24304.10294433
  ---------------------------------------------------
  free energy    TOTEN  =       -92.21440506 eV

  energy without entropy =      -92.22731728  energy(sigma->0) =      -92.21870913


--------------------------------------------------------------------------------------------------------




--------------------------------------- Iteration      1(  13)  ---------------------------------------


    POTLOK:  cpu time      0.0214: real time      0.0216
    SETDIJ:  cpu time      0.0081: real time      0.0082
    TRIAL :  cpu time      1.9067: real time      1.9269
    CORREC:  cpu time      0.7681: real time      0.7765
    CHARGE:  cpu time      0.1527: real time      0.1535
    --------------------------------------------
      LOOP:  cpu time      2.8658: real time      2.9093

 eigenvalue-minimisations  :     0
 total energy-change (2. order) :-0.2996144E+00  (-0.1017597E+00)
 number of electron     156.0000194 magnetization       2.1206088
 augmentation part       84.6251060 magnetization       1.6475730

 Free energy of the ion-electron system (eV)
  ---------------------------------------------------
  alpha Z        PSCENC =      1127.08695075
  Ewald energy   TEWEN  =    -18285.65973526
  -Hartree energ DENC   =     -5512.53278149
  -exchange      EXHF   =         0.00000000
  -V(xc)+E(xc)   XCENC  =       642.36275156
  PAW double counting   =     22288.16356527   -23051.34466429
  entropy T*S    EENTRO =         0.01212418
  eigenvalues    EBANDS =     -1604.70596255
  atomic energy  EATOM  =     24304.10294433
  ---------------------------------------------------
  free energy    TOTEN  =       -92.51401946 eV

  energy without entropy =      -92.52614364  energy(sigma->0) =      -92.51806085


--------------------------------------------------------------------------------------------------------




--------------------------------------- Iteration      1(  14)  ---------------------------------------


    POTLOK:  cpu time      0.0216: real time      0.0218
    SETDIJ:  cpu time      0.0084: real time      0.0085
    TRIAL :  cpu time      1.9152: real time      1.9340
    CORREC:  cpu time      0.9180: real time      0.9269
    CHARGE:  cpu time      0.1494: real time      0.1502
    --------------------------------------------
      LOOP:  cpu time      3.0216: real time      3.0639

 eigenvalue-minimisations  :     0
 total energy-change (2. order) :-0.9861926E-01  (-0.2169868E+00)
 number of electron     156.0000194 magnetization       2.0858692
 augmentation part       84.6605011 magnetization       1.6514497

 Free energy of the ion-electron system (eV)
  ---------------------------------------------------
  alpha Z        PSCENC =      1127.08695075
  Ewald energy   TEWEN  =    -18285.65973526
  -Hartree energ DENC   =     -5508.65069119
  -exchange      EXHF   =         0.00000000
  -V(xc)+E(xc)   XCENC  =       642.26241546
  PAW double counting   =     22280.68197944   -23040.91921853
  entropy T*S    EENTRO =         0.01139889
  eigenvalues    EBANDS =     -1611.52940791
  atomic energy  EATOM  =     24304.10294433
  ---------------------------------------------------
  free energy    TOTEN  =       -92.61263872 eV

  energy without entropy =      -92.62403761  energy(sigma->0) =      -92.61643835


--------------------------------------------------------------------------------------------------------




--------------------------------------- Iteration      1(  15)  ---------------------------------------


    POTLOK:  cpu time      0.0220: real time      0.0222
    SETDIJ:  cpu time      0.0076: real time      0.0076
    TRIAL :  cpu time      1.8938: real time      1.9136
    CORREC:  cpu time      0.9047: real time      0.9134
    CHARGE:  cpu time      0.1514: real time      0.1522
    --------------------------------------------
      LOOP:  cpu time      2.9871: real time      3.0311

 eigenvalue-minimisations  :     0
 total energy-change (2. order) :-0.2189077E+00  (-0.8745688E-01)
 number of electron     156.0000194 magnetization       2.1063540
 augmentation part       84.6879770 magnetization       1.6675019

 Free energy of the ion-electron system (eV)
  ---------------------------------------------------
  alpha Z        PSCENC =      1127.08695075
  Ewald energy   TEWEN  =    -18285.65973526
  -Hartree energ DENC   =     -5524.32164591
  -exchange      EXHF   =         0.00000000
  -V(xc)+E(xc)   XCENC  =       642.90428642
  PAW double counting   =     22300.89097741   -23058.70162181
  entropy T*S    EENTRO =         0.01205296
  eigenvalues    EBANDS =     -1599.14510124
  atomic energy  EATOM  =     24304.10294433
  ---------------------------------------------------
  free energy    TOTEN  =       -92.83154641 eV

  energy without entropy =      -92.84359937  energy(sigma->0) =      -92.83556407


--------------------------------------------------------------------------------------------------------




--------------------------------------- Iteration      1(  16)  ---------------------------------------


    POTLOK:  cpu time      0.0213: real time      0.0215
    SETDIJ:  cpu time      0.0078: real time      0.0079
    TRIAL :  cpu time      1.9729: real time      1.9919
    CORREC:  cpu time      0.7703: real time      0.7789
    CHARGE:  cpu time      0.1502: real time      0.1510
    --------------------------------------------
      LOOP:  cpu time      2.9304: real time      2.9736

 eigenvalue-minimisations  :     0
 total energy-change (2. order) :-0.1379829E+00  (-0.1073664E+00)
 number of electron     156.0000194 magnetization       2.1624123
 augmentation part       84.7096542 magnetization       1.6910368

 Free energy of the ion-electron system (eV)
  ---------------------------------------------------
  alpha Z        PSCENC =      1127.08695075
  Ewald energy   TEWEN  =    -18285.65973526
  -Hartree energ DENC   =     -5533.05552160
  -exchange      EXHF   =         0.00000000
  -V(xc)+E(xc)   XCENC  =       643.24628971
  PAW double counting   =     22313.02225312   -23070.36638192
  entropy T*S    EENTRO =         0.01243590
  eigenvalues    EBANDS =     -1591.35838139
  atomic energy  EATOM  =     24304.10294433
  ---------------------------------------------------
  free energy    TOTEN  =       -92.96952932 eV

  energy without entropy =      -92.98196522  energy(sigma->0) =      -92.97367462


--------------------------------------------------------------------------------------------------------




--------------------------------------- Iteration      1(  17)  ---------------------------------------


    POTLOK:  cpu time      0.0215: real time      0.0216
    SETDIJ:  cpu time      0.0080: real time      0.0080
    TRIAL :  cpu time      1.9618: real time      1.9817
    CORREC:  cpu time      0.7669: real time      0.7753
    CHARGE:  cpu time      0.1506: real time      0.1514
    --------------------------------------------
      LOOP:  cpu time      2.9169: real time      2.9599

 eigenvalue-minimisations  :     0
 total energy-change (2. order) :-0.1001006E+00  (-0.8039497E-01)
 number of electron     156.0000194 magnetization       2.1378669
[...]
     34       4.9116      1.00000
     35       5.1568      1.00000
     36       5.1754      1.00000
     37       5.3906      1.00000
     38       5.4572      1.00000
     39       5.4599      1.00000
     40       5.9929      1.00000
     41       6.4130      1.00000
     42       6.9088      1.00000
     43       6.9418      1.00000
     44       6.9452      1.00000
     45       7.0846      1.00000
     46       7.1578      1.00000
     47       7.2977      1.00000
     48       7.3203      1.00000
     49       7.3680      1.00000
     50       7.4271      1.00000
     51       7.5674      1.00000
     52       7.5760      1.00000
     53       7.6057      1.00000
     54       7.6571      1.00000
     55       7.6773      1.00000
     56       7.8036      1.00000
     57       7.8565      1.00000
     58       7.9589      1.00000
     59       8.0394      1.00000
     60       8.4754      1.00000
     61       8.5488      1.00000
     62       8.7829      1.00000
     63       8.9273      1.00000
     64       9.0238      1.00000
     65       9.1373      1.00000
     66       9.1693      1.00000
     67       9.1915      1.00000
     68       9.3043      1.00000
     69       9.3193      1.00000
     70       9.3616      1.00000
     71       9.3624      1.00000
     72       9.4046      1.00000
     73       9.6424      1.00003
     74       9.7335      1.00034
     75       9.8358      1.00329
     76       9.9384      1.01704
     77      10.1392      0.97109
     78      10.1871      0.86625
     79      10.3836      0.13704
     80      10.5228     -0.03525
     81      10.5688     -0.03121
     82      10.6288     -0.01792
     83      10.8091     -0.00067
     84      10.9683     -0.00001
     85      11.0517     -0.00000
     86      11.2233     -0.00000
     87      11.2558     -0.00000
     88      11.4075     -0.00000
     89      11.6850     -0.00000
     90      11.8013     -0.00000
     91      11.8305     -0.00000
     92      11.9260     -0.00000
     93      12.0097     -0.00000
     94      12.4584     -0.00000
     95      12.5715     -0.00000
     96      12.7185     -0.00000


--------------------------------------------------------------------------------------------------------


 soft charge-density along one line, spin component           1
         0         1         2         3         4         5         6         7         8         9
 total charge-density along one line
 
 soft charge-density along one line, spin component           2
         0         1         2         3         4         5         6         7         8         9
 total charge-density along one line
 
 pseudopotential strength for first ion, spin component:           1
-42.468  -0.000  -0.000   6.561   0.000   0.000   0.000  -0.000
 -0.000 -42.464   0.000   0.000   6.559  -0.000   0.000   0.000
 -0.000   0.000 -42.404   0.000  -0.000   6.534   0.000   0.000
  6.561   0.000   0.000   5.920   0.000   0.000  -0.000   0.000
  0.000   6.559  -0.000   0.000   5.920  -0.000  -0.000  -0.000
  0.000  -0.000   6.534   0.000  -0.000   5.926  -0.000  -0.000
  0.000   0.000   0.000  -0.000  -0.000  -0.000  -0.067   0.000
 -0.000   0.000   0.000   0.000  -0.000  -0.000   0.000  -0.046
 -0.000  -0.000  -0.000   0.000   0.000   0.000   0.000  -0.000
  0.000  -0.000  -0.000  -0.000   0.000   0.000  -0.000  -0.000
 -0.000  -0.000  -0.000   0.000   0.000   0.000   0.000   0.000
  0.000   0.000   0.000   0.000  -0.000  -0.000  -0.614   0.000
 -0.000   0.000   0.000   0.000  -0.000  -0.000   0.000  -0.592
 -0.000  -0.000  -0.000   0.000   0.000   0.000   0.000  -0.000
  0.000  -0.000  -0.000  -0.000   0.000   0.000  -0.000  -0.000
 -0.000  -0.000  -0.000   0.000   0.000   0.000   0.000   0.000
 -0.000   0.000   0.000  -0.000   0.000   0.000   0.000   0.000
 -0.000   0.000   0.000  -0.000   0.000   0.000   0.000   0.000
 pseudopotential strength for first ion, spin component:           2
-44.650  -0.000  -0.000   7.480   0.000   0.000  -0.000  -0.000
 -0.000 -44.627   0.000   0.000   7.470  -0.000   0.000   0.000
 -0.000   0.000 -44.482   0.000  -0.000   7.412   0.000   0.000
  7.480   0.000   0.000   5.665   0.000   0.000   0.000   0.000
  0.000   7.470  -0.000   0.000   5.666  -0.000  -0.000  -0.000
  0.000  -0.000   7.412   0.000  -0.000   5.678  -0.000  -0.000
 -0.000   0.000   0.000   0.000  -0.000  -0.000  -1.746   0.000
 -0.000   0.000   0.000   0.000  -0.000  -0.000   0.000  -1.910
 -0.000  -0.000   0.000   0.000   0.000  -0.000   0.000  -0.000
  0.000  -0.000  -0.000  -0.000   0.000   0.000  -0.000   0.000
 -0.000  -0.000   0.000   0.000   0.000   0.000   0.000   0.000
 -0.000   0.000   0.000   0.000  -0.000  -0.000  -2.265   0.000
 -0.000   0.000   0.000   0.000  -0.000  -0.000   0.000  -2.427
 -0.000  -0.000   0.000   0.000   0.000   0.000   0.000  -0.000
  0.000  -0.000  -0.000  -0.000  -0.000   0.000  -0.000   0.000
 -0.000  -0.000   0.000   0.000   0.000  -0.000   0.000   0.000
 -0.000   0.000   0.000  -0.000   0.000   0.000   0.000   0.000
 -0.000   0.000  -0.000  -0.000   0.000   0.000   0.000   0.000
 total augmentation occupancy for first ion, spin component:           1
  1.992  -0.000   0.000  -0.026   0.000   0.000   0.000   0.000  -0.000   0.000   0.000   0.000  -0.000   0.000   0.000   0.000
 -0.000   1.992   0.000   0.000  -0.025   0.000   0.000   0.000   0.000  -0.000  -0.000   0.000   0.000  -0.000  -0.000   0.000
  0.000   0.000   1.992   0.000   0.000  -0.025   0.000   0.000   0.000   0.000  -0.000   0.000   0.000  -0.000  -0.000  -0.000
 -0.026   0.000   0.000   0.184  -0.000   0.000   0.000   0.000  -0.000   0.000   0.000   0.000  -0.000   0.000   0.000  -0.000
  0.000  -0.025   0.000  -0.000   0.186   0.000   0.000   0.000   0.000   0.000  -0.000  -0.000   0.000  -0.000  -0.000   0.000
  0.000   0.000  -0.025   0.000   0.000   0.179  -0.000   0.000   0.000   0.000   0.000   0.000   0.000   0.000  -0.000   0.000
  0.000   0.000   0.000   0.000   0.000  -0.000   2.708  -0.000   0.000   0.000   0.000  -1.544  -0.000   0.000   0.000   0.000
  0.000   0.000   0.000   0.000   0.000   0.000  -0.000   3.082   0.000   0.000   0.000  -0.000  -2.170   0.000   0.000   0.000
 -0.000   0.000   0.000  -0.000   0.000   0.000   0.000   0.000   3.321  -0.000   0.180   0.000  -0.000  -1.968   0.000  -0.053
  0.000  -0.000   0.000   0.000   0.000   0.000   0.000   0.000  -0.000   2.765   0.000   0.000   0.000  -0.000  -1.582   0.000
  0.000  -0.000  -0.000   0.000  -0.000   0.000   0.000   0.000   0.180   0.000   3.192  -0.000   0.000  -0.054   0.000  -1.915
  0.000   0.000   0.000   0.000  -0.000   0.000  -1.544  -0.000   0.000   0.000  -0.000   1.784   0.000   0.000  -0.000   0.000
 -0.000   0.000   0.000  -0.000   0.000   0.000  -0.000  -2.170  -0.000   0.000   0.000   0.000   2.481  -0.000   0.000   0.000
  0.000  -0.000  -0.000   0.000  -0.000   0.000   0.000   0.000  -1.968  -0.000  -0.054   0.000  -0.000   1.918  -0.000  -0.025
  0.000  -0.000  -0.000   0.000  -0.000  -0.000   0.000   0.000   0.000  -1.582   0.000  -0.000   0.000  -0.000   1.856  -0.000
  0.000   0.000  -0.000  -0.000   0.000   0.000   0.000   0.000  -0.053   0.000  -1.915   0.000   0.000  -0.025  -0.000   1.921
  0.000  -0.000  -0.000   0.000  -0.000  -0.000   0.000   0.000  -0.081  -0.000   0.139   0.000   0.000   0.064  -0.000  -0.071
  0.000   0.000   0.000   0.000  -0.000  -0.000   0.000   0.000   0.009   0.000  -0.016   0.000   0.000  -0.006  -0.000   0.008
 total augmentation occupancy for first ion, spin component:           2
  0.002  -0.000   0.000   0.008  -0.000   0.000   0.000  -0.000   0.000  -0.000   0.000   0.000   0.000   0.000   0.000   0.000
 -0.000   0.002  -0.000   0.000   0.008   0.000   0.000   0.000  -0.000  -0.000  -0.000  -0.000   0.000   0.000   0.000   0.000
  0.000  -0.000   0.002   0.000   0.000   0.009   0.000   0.000   0.000  -0.000   0.000   0.000   0.000   0.000   0.000   0.000
  0.008   0.000   0.000  -0.003   0.000   0.000   0.000  -0.000   0.000   0.000   0.000   0.000  -0.000   0.000   0.000   0.000
 -0.000   0.008   0.000   0.000   0.008   0.000   0.000   0.000  -0.000   0.000  -0.000   0.000   0.000   0.000   0.000   0.000
  0.000   0.000   0.009   0.000   0.000   0.006   0.000   0.000   0.000  -0.000  -0.000  -0.000   0.000  -0.000   0.000   0.000
  0.000   0.000   0.000   0.000   0.000   0.000  -2.090   0.000   0.000   0.000   0.000   0.886   0.000  -0.000  -0.000  -0.000
 -0.000   0.000   0.000  -0.000   0.000   0.000   0.000  -2.093   0.000   0.000  -0.000  -0.000   0.684   0.000   0.000   0.000
  0.000  -0.000   0.000   0.000  -0.000   0.000   0.000   0.000  -2.550   0.000  -0.092  -0.000   0.000   1.077   0.000   0.129
 -0.000  -0.000  -0.000   0.000   0.000  -0.000   0.000   0.000   0.000  -2.086   0.000  -0.000   0.000  -0.000   0.893   0.000
  0.000  -0.000   0.000   0.000  -0.000  -0.000   0.000  -0.000  -0.092   0.000  -2.490  -0.000   0.000   0.129   0.000   0.985
  0.000  -0.000   0.000   0.000   0.000  -0.000   0.886  -0.000  -0.000  -0.000  -0.000  -0.169   0.000  -0.000   0.000   0.000
  0.000   0.000   0.000  -0.000   0.000   0.000   0.000   0.684   0.000   0.000   0.000   0.000   0.071   0.000   0.000   0.000
  0.000   0.000   0.000   0.000   0.000  -0.000  -0.000   0.000   1.077  -0.000   0.129  -0.000   0.000  -0.305  -0.000  -0.144
  0.000   0.000   0.000   0.000   0.000   0.000  -0.000   0.000   0.000   0.893   0.000   0.000   0.000  -0.000  -0.146   0.000
  0.000   0.000   0.000   0.000   0.000   0.000  -0.000   0.000   0.129   0.000   0.985   0.000   0.000  -0.144   0.000  -0.194
  0.000  -0.000  -0.000  -0.000  -0.000   0.000   0.000   0.000  -0.013   0.000  -0.037  -0.000   0.000   0.007   0.000   0.057
  0.000  -0.000   0.000   0.000   0.000   0.000   0.000   0.000  -0.004   0.000   0.010  -0.000   0.000   0.001   0.000  -0.003


------------------------ aborting loop because EDIFF is reached ----------------------------------------





 total charge

# of ion       s       p       d       tot
------------------------------------------
    1        0.357   6.342   6.067  12.767
    2        0.356   6.343   6.043  12.742
    3        0.357   6.343   6.043  12.742
    4        0.362   6.350   6.032  12.743
    5        0.361   6.349   6.031  12.742
    6        0.357   6.344   6.041  12.742
    7        0.357   6.342   6.067  12.767
    8        0.356   6.343   6.043  12.742
    9        0.357   6.343   6.043  12.742
   10        0.789   0.727   8.043   9.558
   11        0.788   0.726   8.043   9.558
   12        0.773   0.742   8.040   9.555
--------------------------------------------------
tot          5.571  59.294  78.536 143.401



 magnetization (x)

# of ion       s       p       d       tot
------------------------------------------
    1       -0.005   0.009  -2.512  -2.507
    2        0.010   0.003   2.443   2.456
    3        0.010   0.003   2.443   2.455
    4       -0.015  -0.026  -2.490  -2.531
    5       -0.015  -0.026  -2.491  -2.532
    6        0.004  -0.016   2.671   2.659
    7       -0.005   0.009  -2.512  -2.507
    8        0.010   0.003   2.443   2.456
    9        0.010   0.003   2.443   2.455
   10        0.009   0.020  -0.120  -0.091
   11        0.009   0.020  -0.120  -0.091
   12       -0.037  -0.089   0.352   0.226
--------------------------------------------------
tot         -0.018  -0.084   2.551   2.449
 
    FORLOC:  cpu time      0.0009: real time      0.0009
    FORNL :  cpu time      0.5378: real time      0.5405
    STRESS:  cpu time      4.1299: real time      4.1643
    FORCOR:  cpu time      0.0205: real time      0.0207
    OFIELD:  cpu time      0.0001: real time      0.0001

  FORCE on cell =-STRESS in cart. coord.  units (eV):
  Direction    XX          YY          ZZ          XY          YZ          ZX
  --------------------------------------------------------------------------------------
  Alpha Z  1127.08695  1127.08695  1127.08695
  Ewald   -6087.96730 -6087.96730 -6109.82826    -0.00000     0.00000    -0.00000
  Hartree  1857.72994  1857.72994  1835.67878    -0.00000    -0.00000    -0.00000
  E(xc)    -944.38115  -944.38115  -944.30643     0.00000     0.00000    -0.00000
  Local    1121.24936  1121.24936  1174.09076    -0.00000     0.00000    -0.00000
  n-local  -208.64461  -222.42051  -215.41864    14.95952     0.07911     0.05556
  augment  1439.94046  1439.94046  1434.09407     0.00000     0.00000     0.00000
  Kinetic  1713.33296  1695.76942  1701.29245     3.13338     0.26226     0.65267
  Fock        0.00000     0.00000     0.00000     0.00000     0.00000     0.00000
  -------------------------------------------------------------------------------------
  Total       2.67689     2.67689     2.68968     0.00000     0.00000     0.00000
  in kB      28.40298    28.40298    28.53871     0.00000     0.00000     0.00000
  external pressure =       28.45 kB  Pullay stress =        0.00 kB


 VOLUME and BASIS-vectors are now :
 -----------------------------------------------------------------------------
  energy-cutoff  :      520.00
  volume of cell :      151.00
      direct lattice vectors                 reciprocal lattice vectors
     3.676939312  0.000000000  0.000000000     0.271965326  0.000000000  0.000000000
     0.000000000  3.676939312 -0.000000000     0.000000000  0.271965326  0.000000000
     0.000000000  0.000000000 11.168735952     0.000000000  0.000000000  0.089535647

  length of vectors
     3.676939312  3.676939312 11.168735952     0.271965326  0.271965326  0.089535647


 FORCES acting on ions:
    Electron-Ion                     Ewald-Force                    Non-Local-Force
 -----------------------------------------------------------------------------------------------
   0.125E-13 0.151E-11 -.565E+00   0.293E-13 0.489E-13 0.564E+00   -.122E-21 -.450E-21 0.294E-02
   0.215E-15 0.177E-11 -.190E+02   0.144E-13 0.422E-13 0.202E+02   -.556E-18 0.105E-17 -.118E+01
   0.120E-13 0.238E-11 0.195E+02   0.400E-13 0.273E-13 -.207E+02   -.236E-18 -.844E-18 0.118E+01
   0.109E-11 -.351E-11 0.745E+02   -.442E-13 0.131E-13 -.727E+02   0.279E-18 -.130E-18 -.179E+01
   0.107E-11 0.720E-11 -.752E+02   -.221E-13 -.242E-13 0.734E+02   0.107E-18 0.755E-18 0.180E+01
   0.110E-11 0.749E-11 0.761E+00   0.196E-13 0.337E-13 -.758E+00   0.481E-21 0.155E-20 -.631E-02
   0.109E-11 0.262E-13 -.565E+00   0.331E-14 -.185E-14 0.564E+00   -.601E-21 0.121E-22 0.294E-02
   0.108E-11 -.213E-13 -.190E+02   0.513E-15 -.327E-14 0.202E+02   -.277E-18 -.105E-18 -.118E+01
   0.108E-11 0.657E-13 0.195E+02   0.468E-14 -.148E-13 -.207E+02   -.444E-18 0.576E-18 0.118E+01
   -.246E-13 0.502E-13 0.165E+02   -.770E-14 -.343E-13 -.166E+02   0.686E-18 -.853E-18 0.169E+00
   -.186E-13 -.425E-13 -.169E+02   -.209E-13 -.417E-14 0.170E+02   0.104E-17 -.458E-18 -.165E+00
   -.187E-13 -.195E-13 0.477E+00   -.711E-13 -.224E-13 -.475E+00   0.114E-21 -.298E-21 -.420E-02
 -----------------------------------------------------------------------------------------------
   0.652E-11 0.170E-10 -.271E-03   -.544E-13 0.604E-13 0.274E-12   0.596E-18 -.968E-20 0.383E-02
 
 
 POSITION                                       TOTAL-FORCE (eV/Angst)
 -----------------------------------------------------------------------------------
      0.00000      1.83847      1.86123         0.000000     -0.000000      0.002016
      0.00000      1.83847      5.57712         0.000000      0.000000      0.007411
      0.00000      1.83847      9.31472         0.000000      0.000000     -0.008653
      1.83847      1.83847      0.05665         0.000000      0.000000      0.005359
      1.83847      1.83847      3.66593         0.000000      0.000000     -0.002614
      1.83847      1.83847      7.44619        -0.000000     -0.000000     -0.003748
      1.83847      0.00000      1.86123        -0.000000     -0.000000      0.002016
      1.83847      0.00000      5.57712        -0.000000     -0.000000      0.007411
      1.83847      0.00000      9.31472         0.000000     -0.000000     -0.008653
      0.00000      0.00000     11.14420         0.000000     -0.000000      0.000649
      0.00000      0.00000      3.74727         0.000000     -0.000000      0.001625
      0.00000      0.00000      7.44605         0.000000     -0.000000     -0.002819
 -----------------------------------------------------------------------------------
    total drift:                                0.000000      0.000000      0.003559


--------------------------------------------------------------------------------------------------------



  FREE ENERGIE OF THE ION-ELECTRON SYSTEM (eV)
  ---------------------------------------------------
  free  energy   TOTEN  =       -93.38496081 eV

  energy  without entropy=      -93.39338503  energy(sigma->0) =      -93.38776889
 
 d Force = 0.4110961E-05[ 0.231E-05, 0.592E-05]  d Energy = 0.5696638E-06 0.354E-05
 d Force =-0.2713728E-01[-0.273E-01,-0.270E-01]  d Ewald  =-0.2555162E-01-0.159E-02


--------------------------------------------------------------------------------------------------------


    POTLOK:  cpu time      0.0300: real time      0.0302


--------------------------------------------------------------------------------------------------------




--------------------------------------------------------------------------------------------------------


  
 reached required accuracy - stopping structural energy minimisation
     LOOP+:  cpu time     44.0386: real time     45.5944
    4ORBIT:  cpu time      0.0000: real time      0.0000



 total charge

# of ion       s       p       d       tot
------------------------------------------
    1        0.357   6.342   6.067  12.767
    2        0.356   6.343   6.043  12.742
    3        0.357   6.343   6.043  12.742
    4        0.362   6.350   6.032  12.743
    5        0.361   6.349   6.031  12.742
    6        0.357   6.344   6.041  12.742
    7        0.357   6.342   6.067  12.767
    8        0.356   6.343   6.043  12.742
    9        0.357   6.343   6.043  12.742
   10        0.789   0.727   8.043   9.558
   11        0.788   0.726   8.043   9.558
   12        0.773   0.742   8.040   9.555
--------------------------------------------------
tot          5.571  59.294  78.536 143.401



 magnetization (x)

# of ion       s       p       d       tot
------------------------------------------
    1       -0.005   0.009  -2.512  -2.507
    2        0.010   0.003   2.443   2.456
    3        0.010   0.003   2.443   2.455
    4       -0.015  -0.026  -2.490  -2.531
    5       -0.015  -0.026  -2.491  -2.532
    6        0.004  -0.016   2.671   2.659
    7       -0.005   0.009  -2.512  -2.507
    8        0.010   0.003   2.443   2.456
    9        0.010   0.003   2.443   2.455
   10        0.009   0.020  -0.120  -0.091
   11        0.009   0.020  -0.120  -0.091
   12       -0.037  -0.089   0.352   0.226
--------------------------------------------------
tot         -0.018  -0.084   2.551   2.449
 

 total amount of memory used by VASP MPI-rank0   244013. kBytes
=======================================================================

   base      :      30000. kBytes
   nonl-proj :     100657. kBytes
   fftplans  :        888. kBytes
   grid      :       6813. kBytes
   one-center:        373. kBytes
   wavefun   :     105282. kBytes
 
  
  
 General timing and accounting informations for this job:
 ========================================================
  
                  Total CPU time used (sec):      385.567
                            User time (sec):      378.256
                          System time (sec):        7.311
                         Elapsed time (sec):      397.581
  
                   Maximum memory used (kb):     1026796.
                   Average memory used (kb):          N/A
  
                          Minor page faults:       177137
                          Major page faults:          188
                 Voluntary context switches:        17138
