       N       E                     dE             d eps       ncg     rms          ort
DAV:   1     0.173715294906E+04    0.17372E+04   -0.93461E+04 32544   0.258E+03
DAV:   2     0.628412560608E+01   -0.17309E+04   -0.16987E+04 32544   0.610E+02
DAV:   3    -0.102450234584E+03   -0.10873E+03   -0.10761E+03 32544   0.161E+02
DAV:   4    -0.104614478563E+03   -0.21642E+01   -0.21606E+01 32544   0.243E+01
DAV:   5    -0.104662177138E+03   -0.47699E-01   -0.47686E-01 32544   0.353E+00
SDA:   6    -0.582085396717E+02    0.46454E+02   -0.47686E-01 32544   0.339E+03 0.000E+00
CGA:   7    -0.838061156181E+02   -0.25598E+02   -0.23541E+02 32544   0.992E+02 0.261E+02
CGA:   8    -0.875614366401E+02   -0.37553E+01   -0.40083E+01 32544   0.634E+02-0.380E+01
CGA:   9    -0.896563868049E+02   -0.20950E+01   -0.20792E+01 32544   0.117E+02 0.224E+01
CGA:  10    -0.910554830361E+02   -0.13991E+01   -0.13942E+01 32544   0.160E+02 0.152E-01
CGA:  11    -0.914152997537E+02   -0.35982E+00   -0.32991E+00 32544   0.271E+01 0.151E+01
CGA:  12    -0.916200715417E+02   -0.20477E+00   -0.20642E+00 32544   0.456E+01-0.988E-02
CGA:  13    -0.917913964735E+02   -0.17132E+00   -0.18328E+00 32544   0.478E+01-0.241E+00
CGA:  14    -0.921371248628E+02   -0.34573E+00   -0.35011E+00 32544   0.357E+01 0.651E-01
CGA:  15    -0.922066010429E+02   -0.69476E-01   -0.54092E-01 32544   0.868E+00 0.104E+01
CGA:  16    -0.922492239410E+02   -0.42623E-01   -0.42605E-01 32544   0.194E+01 0.115E-02
CGA:  17    -0.923290660583E+02   -0.79842E-01   -0.78787E-01 32544   0.313E+01 0.218E-01
CGA:  18    -0.923703993562E+02   -0.41333E-01   -0.30963E-01 32544   0.128E+01 0.107E+01
CGA:  19    -0.923924445982E+02   -0.22045E-01   -0.23256E-01 32544   0.611E+00-0.854E-01
CGA:  20    -0.924122675273E+02   -0.19823E-01   -0.19879E-01 32544   0.145E+01-0.162E-02
CGA:  21    -0.924473501693E+02   -0.35083E-01   -0.34832E-01 32544   0.924E+00 0.634E-02
CGA:  22    -0.924596565645E+02   -0.12306E-01   -0.12645E-01 32544   0.306E+00-0.233E-01
CGA:  23    -0.924663773689E+02   -0.67208E-02   -0.67880E-02 32544   0.356E+00-0.174E-02
CGA:  24    -0.924762595716E+02   -0.98822E-02   -0.10171E-01 32544   0.371E+00-0.692E-02
CGA:  25    -0.924838700685E+02   -0.76105E-02   -0.81543E-02 32544   0.349E+00-0.196E-01
CGA:  26    -0.924969078332E+02   -0.13038E-01   -0.13274E-01 32544   0.716E+00-0.341E-02
CGA:  27    -0.925137244369E+02   -0.16817E-01   -0.16828E-01 32544   0.285E+00 0.157E-02
CGA:  28    -0.925176804555E+02   -0.39560E-02   -0.40788E-02 32544   0.751E-01-0.675E-02
CGA:  29    -0.925200290918E+02   -0.23486E-02   -0.23771E-02 32544   0.130E+00-0.230E-03
CGA:  30    -0.925260288060E+02   -0.59997E-02   -0.60317E-02 32544   0.194E+00-0.439E-04
CGA:  31    -0.925306290288E+02   -0.46002E-02   -0.47694E-02 32544   0.143E+00-0.515E-02
CGA:  32    -0.925359098269E+02   -0.52808E-02   -0.53787E-02 32544   0.179E+00-0.111E-02
CGA:  33    -0.925399960768E+02   -0.40862E-02   -0.40715E-02 32544   0.744E-01 0.793E-03
CGA:  34    -0.925422621972E+02   -0.22661E-02   -0.22812E-02 32544   0.102E+00-0.154E-03
CGA:  35    -0.925476176582E+02   -0.53555E-02   -0.53698E-02 32544   0.146E+00 0.290E-03
CGA:  36    -0.925503850599E+02   -0.27674E-02   -0.28542E-02 32544   0.341E-01-0.331E-02
SDA:  37    -0.925514143106E+02   -0.10293E-02   -0.10350E-02 32544   0.470E-01-0.188E-03
CGA:  38    -0.925531784476E+02   -0.17641E-02   -0.17621E-02 32544   0.358E-01-0.112E-03
CGA:  39    -0.925567672339E+02   -0.35888E-02   -0.36032E-02 32544   0.139E-01-0.406E-03
CGA:  40    -0.925595129684E+02   -0.27457E-02   -0.27807E-02 32544   0.189E-01-0.253E-03
CGA:  41    -0.925608883216E+02   -0.13754E-02   -0.13754E-02 32544   0.417E-02-0.106E-03
CGA:  42    -0.925610451920E+02   -0.15687E-03   -0.15617E-03 32544   0.350E-02-0.130E-04
CGA:  43    -0.925615951342E+02   -0.54994E-03   -0.55531E-03 32544   0.676E-02-0.597E-04
CGA:  44    -0.925619255783E+02   -0.33044E-03   -0.32920E-03 32544   0.535E-02-0.360E-04
CGA:  45    -0.925621636855E+02   -0.23811E-03   -0.23740E-03 32544   0.163E-02-0.160E-04
CGA:  46    -0.925626171482E+02   -0.45346E-03   -0.44839E-03 32544   0.778E-03 0.253E-04
CGA:  47    -0.925626599767E+02   -0.42829E-04   -0.42840E-04 32544   0.121E-02 0.268E-05
CGA:  48    -0.925627968939E+02   -0.13692E-03   -0.13686E-03 32544   0.142E-02 0.287E-05
CGA:  49    -0.925628781313E+02   -0.81237E-04   -0.81152E-04 32544   0.116E-02 0.177E-05
CGA:  50    -0.925629240324E+02   -0.45901E-04   -0.45901E-04 32544   0.362E-03 0.224E-05
CGA:  51    -0.925629775945E+02   -0.53562E-04   -0.53414E-04 32544   0.212E-03 0.404E-05
CGA:  52    -0.925630038368E+02   -0.26242E-04   -0.26358E-04 32544   0.399E-03-0.157E-05
CGA:  53    -0.925630266959E+02   -0.22859E-04   -0.22745E-04 32544   0.545E-03-0.254E-05
CGA:  54    -0.925630645567E+02   -0.37861E-04   -0.37776E-04 32544   0.698E-04-0.637E-05
CGA:  55    -0.925630667403E+02   -0.21836E-05   -0.21693E-05 32544   0.369E-04 0.758E-06
CGA:  56    -0.925630749863E+02   -0.82460E-05   -0.80256E-05 32544   0.324E-04 0.265E-05
CGA:  57    -0.925630776750E+02   -0.26886E-05   -0.27022E-05 32544   0.682E-05 0.226E-05
CGA:  58    -0.925630781156E+02   -0.44066E-06   -0.46142E-06 32544   0.117E-04 0.164E-05
   1 F= -.92563078E+02 E0= -.92566713E+02  d E =-.925631E+02  mag=     1.7564
