       N       E                     dE             d eps       ncg     rms          ort
DAV:   1     0.173772492197E+04    0.17377E+04   -0.93415E+04 32544   0.258E+03
DAV:   2     0.630251401283E+01   -0.17314E+04   -0.16993E+04 32544   0.610E+02
DAV:   3    -0.102345392064E+03   -0.10865E+03   -0.10752E+03 32544   0.161E+02
DAV:   4    -0.104497870998E+03   -0.21525E+01   -0.21497E+01 32544   0.242E+01
DAV:   5    -0.104544570356E+03   -0.46699E-01   -0.46693E-01 32544   0.352E+00
SDA:   6    -0.583288164041E+02    0.46216E+02   -0.46693E-01 32544   0.341E+03 0.000E+00
CGA:   7    -0.836068078007E+02   -0.25278E+02   -0.23123E+02 32544   0.107E+03 0.290E+02
CGA:   8    -0.874646472832E+02   -0.38578E+01   -0.39537E+01 32544   0.563E+02 0.615E-01
CGA:   9    -0.897665999223E+02   -0.23020E+01   -0.23969E+01 32544   0.120E+02-0.679E+00
CGA:  10    -0.913486863766E+02   -0.15821E+01   -0.15771E+01 32544   0.356E+01-0.735E-02
CGA:  11    -0.916340240361E+02   -0.28534E+00   -0.29087E+00 32544   0.368E+01-0.311E-01
CGA:  12    -0.918111506708E+02   -0.17713E+00   -0.17842E+00 32544   0.441E+01-0.146E-01
CGA:  13    -0.921418407241E+02   -0.33069E+00   -0.34509E+00 32544   0.157E+01-0.144E+00
CGA:  14    -0.922965842221E+02   -0.15474E+00   -0.15476E+00 32544   0.168E+01 0.857E-03
CGA:  15    -0.923457874571E+02   -0.49203E-01   -0.49053E-01 32544   0.790E+00 0.526E-02
CGA:  16    -0.924186145584E+02   -0.72827E-01   -0.72554E-01 32544   0.540E+00 0.762E-03
CGA:  17    -0.924749705831E+02   -0.56356E-01   -0.56425E-01 32544   0.271E+00-0.237E-03
CGA:  18    -0.924840611636E+02   -0.90906E-02   -0.92293E-02 32544   0.210E+00-0.335E-02
CGA:  19    -0.925061869431E+02   -0.22126E-01   -0.22075E-01 32544   0.195E+00-0.180E-04
CGA:  20    -0.925201157839E+02   -0.13929E-01   -0.14057E-01 32544   0.240E+00-0.570E-03
CGA:  21    -0.925283513568E+02   -0.82356E-02   -0.86592E-02 32544   0.735E-01-0.911E-02
CGA:  22    -0.925352662945E+02   -0.69149E-02   -0.69162E-02 32544   0.527E-01 0.194E-03
CGA:  23    -0.925378211761E+02   -0.25549E-02   -0.25842E-02 32544   0.719E-01-0.299E-03
CGA:  24    -0.925458193040E+02   -0.79981E-02   -0.80228E-02 32544   0.504E-01 0.797E-03
CGA:  25    -0.925489131493E+02   -0.30938E-02   -0.30913E-02 32544   0.471E-01 0.161E-05
CGA:  26    -0.925508782567E+02   -0.19651E-02   -0.19797E-02 32544   0.243E-01-0.308E-03
CGA:  27    -0.925545337738E+02   -0.36555E-02   -0.36515E-02 32544   0.389E-01 0.574E-04
CGA:  28    -0.925561062047E+02   -0.15724E-02   -0.15815E-02 32544   0.303E-01-0.243E-03
CGA:  29    -0.925587779008E+02   -0.26717E-02   -0.26720E-02 32544   0.115E-01-0.208E-04
CGA:  30    -0.925595759089E+02   -0.79801E-03   -0.79939E-03 32544   0.139E-01-0.329E-04
CGA:  31    -0.925602150367E+02   -0.63913E-03   -0.64009E-03 32544   0.945E-02-0.821E-04
CGA:  32    -0.925613042502E+02   -0.10892E-02   -0.10904E-02 32544   0.611E-02-0.128E-03
CGA:  33    -0.925615173477E+02   -0.21310E-03   -0.21118E-03 32544   0.353E-02-0.243E-04
CGA:  34    -0.925618393225E+02   -0.32197E-03   -0.32146E-03 32544   0.238E-02-0.416E-04
CGA:  35    -0.925620081482E+02   -0.16883E-03   -0.16826E-03 32544   0.320E-02-0.123E-04
CGA:  36    -0.925621457883E+02   -0.13764E-03   -0.13704E-03 32544   0.126E-02 0.310E-05
SDA:  37    -0.925622822498E+02   -0.13646E-03   -0.13635E-03 32544   0.849E-03 0.142E-04
CGA:  38    -0.925623085683E+02   -0.26318E-04   -0.26358E-04 32544   0.560E-03 0.393E-05
CGA:  39    -0.925623729167E+02   -0.64348E-04   -0.64218E-04 32544   0.680E-03 0.934E-05
CGA:  40    -0.925624379417E+02   -0.65025E-04   -0.65077E-04 32544   0.308E-03 0.165E-04
CGA:  41    -0.925624542470E+02   -0.16305E-04   -0.16658E-04 32544   0.399E-03 0.936E-05
CGA:  42    -0.925624884853E+02   -0.34238E-04   -0.34476E-04 32544   0.984E-04 0.226E-04
CGA:  43    -0.925624932941E+02   -0.48088E-05   -0.48469E-05 32544   0.127E-03 0.199E-05
CGA:  44    -0.925625063449E+02   -0.13051E-04   -0.13068E-04 32544   0.420E-04-0.842E-06
CGA:  45    -0.925625113315E+02   -0.49865E-05   -0.49596E-05 32544   0.543E-04 0.186E-05
CGA:  46    -0.925625144616E+02   -0.31301E-05   -0.31970E-05 32544   0.593E-04 0.231E-05
CGA:  47    -0.925625174939E+02   -0.30324E-05   -0.31147E-05 32544   0.485E-05 0.251E-05
CGA:  48    -0.925625176878E+02   -0.19391E-06   -0.18682E-06 32544   0.446E-05 0.575E-06
CGA:  49    -0.925625184789E+02   -0.79103E-06   -0.10729E-05 32544   0.970E-05-0.151E-05
   1 F= -.92562518E+02 E0= -.92566140E+02  d E =-.925625E+02  mag=     1.8047
       N       E                     dE             d eps       ncg     rms          ort
SDA:   1    -0.925588639446E+02    0.36537E-02    0.00000E+00 32544   0.197E-01 0.000E+00
CGA:   2    -0.925600624097E+02   -0.11985E-02   -0.11982E-02 32544   0.274E-01-0.522E-05
CGA:   3    -0.925611772222E+02   -0.11148E-02   -0.11146E-02 32544   0.586E-02-0.722E-06
CGA:   4    -0.925617039074E+02   -0.52669E-03   -0.52668E-03 32544   0.982E-02 0.238E-06
CGA:   5    -0.925621905941E+02   -0.48669E-03   -0.48670E-03 32544   0.546E-02-0.200E-05
CGA:   6    -0.925625030605E+02   -0.31247E-03   -0.31252E-03 32544   0.790E-03 0.182E-05
CGA:   7    -0.925625790999E+02   -0.76039E-04   -0.76025E-04 32544   0.170E-02 0.929E-06
CGA:   8    -0.925626393209E+02   -0.60221E-04   -0.60269E-04 32544   0.310E-03 0.744E-06
CGA:   9    -0.925626592193E+02   -0.19898E-04   -0.19898E-04 32544   0.138E-03 0.134E-07
CGA:  10    -0.925626673880E+02   -0.81686E-05   -0.81592E-05 32544   0.180E-03-0.452E-06
CGA:  11    -0.925626786706E+02   -0.11283E-04   -0.11270E-04 32544   0.267E-04-0.737E-06
CGA:  12    -0.925626802973E+02   -0.16267E-05   -0.16250E-05 32544   0.466E-04-0.149E-06
CGA:  13    -0.925626832335E+02   -0.29362E-05   -0.29303E-05 32544   0.188E-04-0.350E-06
CGA:  14    -0.925626844188E+02   -0.11853E-05   -0.11839E-05 32544   0.709E-05-0.153E-06
CGA:  15    -0.925626848220E+02   -0.40322E-06   -0.40135E-06 32544   0.971E-05 0.481E-08
   2 F= -.92562685E+02 E0= -.92566321E+02  d E =-.166343E-03  mag=     1.7956
       N       E                     dE             d eps       ncg     rms          ort
SDA:   1    -0.925284807927E+02    0.34204E-01    0.00000E+00 32544   0.177E+00 0.000E+00
CGA:   2    -0.925396739948E+02   -0.11193E-01   -0.11193E-01 32544   0.234E+00-0.341E-04
CGA:   3    -0.925494379100E+02   -0.97639E-02   -0.97638E-02 32544   0.539E-01-0.376E-05
CGA:   4    -0.925535341413E+02   -0.40962E-02   -0.40961E-02 32544   0.992E-01 0.218E-04
CGA:   5    -0.925586100497E+02   -0.50759E-02   -0.50768E-02 32544   0.399E-01-0.330E-05
CGA:   6    -0.925613814145E+02   -0.27714E-02   -0.27713E-02 32544   0.689E-02-0.285E-05
CGA:   7    -0.925620123368E+02   -0.63092E-03   -0.63087E-03 32544   0.143E-01 0.114E-05
CGA:   8    -0.925625750840E+02   -0.56275E-03   -0.56283E-03 32544   0.259E-02-0.196E-05
CGA:   9    -0.925627017624E+02   -0.12668E-03   -0.12670E-03 32544   0.174E-02 0.816E-06
CGA:  10    -0.925627839505E+02   -0.82188E-04   -0.82189E-04 32544   0.121E-02 0.223E-06
CGA:  11    -0.925628917316E+02   -0.10778E-03   -0.10778E-03 32544   0.228E-03-0.615E-07
CGA:  12    -0.925629081242E+02   -0.16393E-04   -0.16393E-04 32544   0.446E-03-0.494E-07
CGA:  13    -0.925629325917E+02   -0.24467E-04   -0.24467E-04 32544   0.157E-03 0.173E-07
CGA:  14    -0.925629412663E+02   -0.86746E-05   -0.86714E-05 32544   0.110E-03-0.135E-06
CGA:  15    -0.925629456960E+02   -0.44297E-05   -0.44244E-05 32544   0.515E-04-0.204E-06
CGA:  16    -0.925629525244E+02   -0.68284E-05   -0.68107E-05 32544   0.313E-04 0.278E-06
CGA:  17    -0.925629537833E+02   -0.12589E-05   -0.12657E-05 32544   0.264E-04 0.285E-06
CGA:  18    -0.925629556220E+02   -0.18387E-05   -0.18396E-05 32544   0.161E-04 0.847E-06
CGA:  19    -0.925629566377E+02   -0.10156E-05   -0.10189E-05 32544   0.124E-04 0.587E-06
CGA:  20    -0.925629571595E+02   -0.52185E-06   -0.52773E-06 32544   0.560E-05 0.154E-06
   3 F= -.92562957E+02 E0= -.92566595E+02  d E =-.438681E-03  mag=     1.7718
       N       E                     dE             d eps       ncg     rms          ort
SDA:   1    -0.925598551619E+02    0.31015E-02    0.00000E+00 32544   0.329E-01 0.000E+00
CGA:   2    -0.925606515144E+02   -0.79635E-03   -0.79665E-03 32544   0.122E-01-0.123E-04
CGA:   3    -0.925618669915E+02   -0.12155E-02   -0.12155E-02 32544   0.451E-02-0.271E-05
CGA:   4    -0.925621921039E+02   -0.32511E-03   -0.32511E-03 32544   0.692E-02-0.102E-05
CGA:   5    -0.925625835028E+02   -0.39140E-03   -0.39142E-03 32544   0.431E-02 0.109E-05
CGA:   6    -0.925628257225E+02   -0.24222E-03   -0.24223E-03 32544   0.126E-02-0.241E-06
CGA:   7    -0.925628630830E+02   -0.37360E-04   -0.37369E-04 32544   0.593E-03-0.144E-06
CGA:   8    -0.925629446342E+02   -0.81551E-04   -0.81423E-04 32544   0.159E-03 0.182E-05
CGA:   9    -0.925629512841E+02   -0.66500E-05   -0.66475E-05 32544   0.150E-03-0.135E-06
CGA:  10    -0.925629619187E+02   -0.10635E-04   -0.10635E-04 32544   0.921E-04-0.307E-06
CGA:  11    -0.925629669815E+02   -0.50627E-05   -0.50635E-05 32544   0.472E-04 0.485E-07
CGA:  12    -0.925629686072E+02   -0.16257E-05   -0.16238E-05 32544   0.186E-04-0.231E-07
CGA:  13    -0.925629714277E+02   -0.28205E-05   -0.28264E-05 32544   0.193E-04-0.862E-07
CGA:  14    -0.925629719466E+02   -0.51890E-06   -0.51816E-06 32544   0.634E-05-0.188E-07
   4 F= -.92562972E+02 E0= -.92566610E+02  d E =-.453468E-03  mag=     1.7638
       N       E                     dE             d eps       ncg     rms          ort
SDA:   1    -0.925563620028E+02    0.66094E-02    0.00000E+00 32544   0.414E-01 0.000E+00
CGA:   2    -0.925578972306E+02   -0.15352E-02   -0.15349E-02 32544   0.302E-01-0.168E-05
CGA:   3    -0.925602329063E+02   -0.23357E-02   -0.23357E-02 32544   0.129E-01-0.128E-06
CGA:   4    -0.925608736841E+02   -0.64078E-03   -0.64084E-03 32544   0.165E-01-0.122E-05
CGA:   5    -0.925620560631E+02   -0.11824E-02   -0.11824E-02 32544   0.878E-02-0.342E-07
CGA:   6    -0.925626575360E+02   -0.60147E-03   -0.60147E-03 32544   0.208E-02 0.278E-05
CGA:   7    -0.925627531511E+02   -0.95615E-04   -0.95602E-04 32544   0.207E-02-0.733E-06
CGA:   8    -0.925629170048E+02   -0.16385E-03   -0.16386E-03 32544   0.109E-02-0.737E-06
CGA:   9    -0.925629608764E+02   -0.43872E-04   -0.43870E-04 32544   0.643E-03 0.531E-07
CGA:  10    -0.925629881195E+02   -0.27243E-04   -0.27238E-04 32544   0.267E-03-0.242E-07
CGA:  11    -0.925630260882E+02   -0.37969E-04   -0.38006E-04 32544   0.183E-03-0.442E-06
CGA:  12    -0.925630322028E+02   -0.61146E-05   -0.61111E-05 32544   0.101E-03-0.440E-07
CGA:  13    -0.925630450066E+02   -0.12804E-04   -0.12756E-04 32544   0.111E-03 0.764E-06
CGA:  14    -0.925630485159E+02   -0.35093E-05   -0.35142E-05 32544   0.479E-04 0.130E-06
CGA:  15    -0.925630519028E+02   -0.33869E-05   -0.33875E-05 32544   0.256E-04-0.184E-06
CGA:  16    -0.925630540188E+02   -0.21161E-05   -0.21180E-05 32544   0.261E-04-0.816E-07
CGA:  17    -0.925630549081E+02   -0.88932E-06   -0.88740E-06 32544   0.710E-05-0.743E-07
   5 F= -.92563055E+02 E0= -.92566686E+02  d E =-.829615E-04  mag=     1.7601
       N       E                     dE             d eps       ncg     rms          ort
SDA:   1    -0.925614131133E+02    0.16409E-02    0.00000E+00 32544   0.406E-01 0.000E+00
CGA:   2    -0.925621604222E+02   -0.74731E-03   -0.74733E-03 32544   0.341E-02-0.480E-05
CGA:   3    -0.925625224416E+02   -0.36202E-03   -0.36206E-03 32544   0.383E-02-0.127E-05
CGA:   4    -0.925626779060E+02   -0.15546E-03   -0.15547E-03 32544   0.214E-02 0.566E-06
CGA:   5    -0.925628296641E+02   -0.15176E-03   -0.15176E-03 32544   0.145E-02 0.269E-06
CGA:   6    -0.925629931442E+02   -0.16348E-03   -0.16348E-03 32544   0.577E-03 0.986E-08
CGA:   7    -0.925630080329E+02   -0.14889E-04   -0.14890E-04 32544   0.230E-03-0.102E-07
CGA:   8    -0.925630369714E+02   -0.28938E-04   -0.28913E-04 32544   0.169E-03 0.411E-06
CGA:   9    -0.925630450839E+02   -0.81125E-05   -0.81136E-05 32544   0.105E-03 0.981E-09
CGA:  10    -0.925630496116E+02   -0.45277E-05   -0.45206E-05 32544   0.448E-04-0.249E-06
CGA:  11    -0.925630551415E+02   -0.55299E-05   -0.55401E-05 32544   0.492E-04-0.177E-06
CGA:  12    -0.925630564976E+02   -0.13561E-05   -0.13555E-05 32544   0.174E-04-0.247E-07
CGA:  13    -0.925630584716E+02   -0.19740E-05   -0.19776E-05 32544   0.151E-04-0.531E-07
CGA:  14    -0.925630595085E+02   -0.10369E-05   -0.10377E-05 32544   0.985E-05 0.160E-06
CGA:  15    -0.925630598620E+02   -0.35355E-06   -0.35414E-06 32544   0.476E-05 0.838E-08
   6 F= -.92563060E+02 E0= -.92566687E+02  d E =-.879154E-04  mag=     1.7592
       N       E                     dE             d eps       ncg     rms          ort
SDA:   1    -0.925613980229E+02    0.16615E-02    0.00000E+00 32544   0.216E-01 0.000E+00
CGA:   2    -0.925618683112E+02   -0.47029E-03   -0.47022E-03 32544   0.530E-02-0.443E-06
CGA:   3    -0.925624356006E+02   -0.56729E-03   -0.56733E-03 32544   0.329E-02-0.130E-05
CGA:   4    -0.925625738765E+02   -0.13828E-03   -0.13828E-03 32544   0.280E-02-0.975E-08
CGA:   5    -0.925628601307E+02   -0.28625E-03   -0.28632E-03 32544   0.188E-02-0.196E-05
CGA:   6    -0.925629807642E+02   -0.12063E-03   -0.12063E-03 32544   0.101E-02-0.119E-06
CGA:   7    -0.925630077241E+02   -0.26960E-04   -0.26967E-04 32544   0.282E-03 0.123E-08
CGA:   8    -0.925630456412E+02   -0.37917E-04   -0.37874E-04 32544   0.226E-03 0.624E-06
CGA:   9    -0.925630532024E+02   -0.75612E-05   -0.75680E-05 32544   0.925E-04 0.152E-06
CGA:  10    -0.925630596743E+02   -0.64719E-05   -0.64723E-05 32544   0.697E-04-0.226E-06
CGA:  11    -0.925630649476E+02   -0.52733E-05   -0.52740E-05 32544   0.778E-04-0.912E-07
CGA:  12    -0.925630672806E+02   -0.23330E-05   -0.23332E-05 32544   0.153E-04 0.120E-08
CGA:  13    -0.925630698782E+02   -0.25976E-05   -0.26139E-05 32544   0.223E-04-0.160E-06
CGA:  14    -0.925630705917E+02   -0.71345E-06   -0.71452E-06 32544   0.855E-05 0.263E-07
   7 F= -.92563071E+02 E0= -.92566714E+02  d E =-.107297E-04  mag=     1.7556
