 vasp.6.4.3 19Mar24 (build Mar 26 2024 14:05:37) complex                        
  
 executed on             LinuxIFC date 2024.12.16  16:16:29
 running  128 mpi-ranks, on    1 nodes
 distrk:  each k-point on   32 cores,    4 groups
 distr:  one band on NCORE=   1 cores,   32 groups


--------------------------------------------------------------------------------------------------------


 INCAR:
   ALGO = All
   EDIFF = 1e-06
   EDIFFG = -0.01
   ENCUT = 520
   GGA = Pe
   IBRION = 2
   ISIF = 4
   ISMEAR = 1
   ISPIN = 2
   ISYM = 0
   KPAR = 4
   LCHARG = True
   LORBIT = 11
   LREAL = False
   LWAVE = False
   MAGMOM = 1*-2.245 1*2.117 1*2.116 1*-2.227 1*-2.228 1*2.243 1*-2.245 1*2.117 1*2.116 2*-0.081 1*0.168
   NELM = 200
   NSW = 100
   POTIM = 0.25
   PREC = Accurate
   SIGMA = 0.2

 POTCAR:    PAW_PBE Fe_pv 02Aug2007               
 POTCAR:    PAW_PBE Pt 04Feb2005                  
 -----------------------------------------------------------------------------
|                                                                             |
|           W    W    AA    RRRRR   N    N  II  N    N   GGGG   !!!           |
|           W    W   A  A   R    R  NN   N  II  NN   N  G    G  !!!           |
|           W    W  A    A  R    R  N N  N  II  N N  N  G       !!!           |
|           W WW W  AAAAAA  RRRRR   N  N N  II  N  N N  G  GGG   !            |
|           WW  WW  A    A  R   R   N   NN  II  N   NN  G    G                |
|           W    W  A    A  R    R  N    N  II  N    N   GGGG   !!!           |
|                                                                             |
|     For optimal performance we recommend to set                             |
|       NCORE = 2 up to number-of-cores-per-socket                            |
|     NCORE specifies how many cores store one orbital (NPAR=cpu/NCORE).      |
|     This setting can greatly improve the performance of VASP for DFT.       |
|     The default, NCORE=1 might be grossly inefficient on modern             |
|     multi-core architectures or massively parallel machines. Do your        |
|     own testing! More info at https://www.vasp.at/wiki/index.php/NCORE      |
|     Unfortunately you need to use the default for GW and RPA                |
|     calculations (for HF NCORE is supported but not extensively tested      |
|     yet).                                                                   |
|                                                                             |
 -----------------------------------------------------------------------------

 POTCAR:    PAW_PBE Fe_pv 02Aug2007               
   SHA256 =  5d22e414b1f82158bf2c7ecb8b97b28fd0923e48cadc1c3bf74d524558f5dd32 Fe_pv/POTCAR          
   COPYR  = (c) Copyright 02Aug2007 Georg Kresse                                                    
   COPYR  = This file is part of the software VASP. Any use, copying, and all other rights are regul
   COPYR  = If you do not have a valid VASP license, you may not use, copy or distribute this file. 
   VRHFIN =Fe:  3pd7s1                                                                              
   LEXCH  = PE                                                                                      
   EATOM  =  2457.4239 eV,  180.6156 Ry                                                             
                                                                                                    
   TITEL  = PAW_PBE Fe_pv 02Aug2007                                                                 
   LULTRA =        F    use ultrasoft PP ?                                                          
   IUNSCR =        1    unscreen: 0-lin 1-nonlin 2-no                                               
   RPACOR =    1.750    partial core radius                                                         
   POMASS =   55.847; ZVAL   =   14.000    mass and valenz                                          
   RCORE  =    2.200    outmost cutoff radius                                                       
   RWIGS  =    2.200; RWIGS  =    1.164    wigner-seitz radius (au A)                               
   ENMAX  =  293.238; ENMIN  =  219.928 eV                                                          
   ICORE  =        3    local potential                                                             
   LCOR   =        T    correct aug charges                                                         
   LPAW   =        T    paw PP                                                                      
   EAUG   =  578.342                                                                                
   DEXC   =    0.000                                                                                
   RMAX   =    2.249    core radius for proj-oper                                                   
   RAUG   =    1.300    factor for augmentation sphere                                              
   RDEP   =    2.296    radius for radial grids                                                     
   RDEPT  =    1.766    core radius for aug-charge                                                  
                                                                                                    
   Atomic configuration                                                                             
    8 entries                                                                                       
     n  l   j            E        occ.                                                              
     1  0  0.50     -6993.8440   2.0000                                                             
     2  0  0.50      -814.6047   2.0000                                                             
     2  1  1.50      -693.3689   6.0000                                                             
     3  0  0.50       -89.4732   2.0000                                                             
     3  1  1.50       -55.6373   6.0000                                                             
     3  2  2.50        -3.8151   7.0000                                                             
     4  0  0.50        -4.2551   1.0000                                                             
     4  3  2.50        -1.3606   0.0000                                                             
   Description                                                                                      
     l       E           TYP  RCUT    TYP  RCUT                                                     
     1    -55.6372668     23  2.000                                                                 
     1     -5.4423304     23  2.000                                                                 
     2     -3.8151096     23  2.200                                                                 
     2     -5.1756922     23  2.200                                                                 
     0     -4.2550951     23  2.200                                                                 
     0     27.2116520     23  2.200                                                                 
     3     -1.3605826     23  2.200                                                                 
  local pseudopotential read in
  partial core-charges read in
  partial kinetic energy density read in
  atomic valenz-charges read in
  non local Contribution for L=           1  read in
    real space projection operators read in
  non local Contribution for L=           1  read in
    real space projection operators read in
  non local Contribution for L=           2  read in
    real space projection operators read in
  non local Contribution for L=           2  read in
    real space projection operators read in
  non local Contribution for L=           0  read in
    real space projection operators read in
  non local Contribution for L=           0  read in
    real space projection operators read in
    PAW grid and wavefunctions read in
 
   number of l-projection  operators is LMAX  =           6
   number of lm-projection operators is LMMAX =          18
 
 POTCAR:    PAW_PBE Pt 04Feb2005                  
   SHA256 =  3ed90460adef76debcff1cfb73ee1349b515b1a3db03439735b44de3a8db7dc8 Pt/POTCAR             
   COPYR  = (c) Copyright 04Feb2005 Georg Kresse                                                    
   COPYR  = This file is part of the software VASP. Any use, copying, and all other rights are regul
   COPYR  = If you do not have a valid VASP license, you may not use, copy or distribute this file. 
   VRHFIN =Pt: s1d9                                                                                 
   LEXCH  = PE                                                                                      
   EATOM  =   729.1176 eV,   53.5886 Ry                                                             
                                                                                                    
   TITEL  = PAW_PBE Pt 04Feb2005                                                                    
   LULTRA =        F    use ultrasoft PP ?                                                          
   IUNSCR =        1    unscreen: 0-lin 1-nonlin 2-no                                               
   RPACOR =    2.330    partial core radius                                                         
   POMASS =  195.080; ZVAL   =   10.000    mass and valenz                                          
   RCORE  =    2.600    outmost cutoff radius                                                       
   RWIGS  =    2.750; RWIGS  =    1.455    wigner-seitz radius (au A)                               
   ENMAX  =  230.283; ENMIN  =  172.712 eV                                                          
   ICORE  =        3    local potential                                                             
   LCOR   =        T    correct aug charges                                                         
   LPAW   =        T    paw PP                                                                      
   EAUG   =  358.966                                                                                
   DEXC   =    0.000                                                                                
   RMAX   =    2.658    core radius for proj-oper                                                   
   RAUG   =    1.300    factor for augmentation sphere                                              
   RDEP   =    2.761    radius for radial grids                                                     
   RDEPT  =    2.203    core radius for aug-charge                                                  
                                                                                                    
   Atomic configuration                                                                             
   16 entries                                                                                       
     n  l   j            E        occ.                                                              
     1  0  0.50    -78401.1885   2.0000                                                             
     2  0  0.50    -13770.7750   2.0000                                                             
     2  1  1.50    -11931.0468   6.0000                                                             
     3  0  0.50     -3234.7234   2.0000                                                             
     3  1  1.50     -2699.2216   6.0000                                                             
     3  2  2.50     -2119.5714  10.0000                                                             
     4  0  0.50      -695.1528   2.0000                                                             
     4  1  1.50      -519.6034   6.0000                                                             
     4  2  2.50      -306.6786  10.0000                                                             
     4  3  3.50       -70.1041  14.0000                                                             
     5  0  0.50      -101.7747   2.0000                                                             
     5  1  1.50       -55.9873   6.0000                                                             
     5  2  2.50        -6.1423   9.0000                                                             
     6  0  0.50        -5.6573   1.0000                                                             
     6  1  1.50        -6.8029   0.0000                                                             
     5  3  2.50        -1.3606   0.0000                                                             
   Description                                                                                      
     l       E           TYP  RCUT    TYP  RCUT                                                     
     2     -6.1423404     23  2.500                                                                 
     2     -7.5029230     23  2.500                                                                 
     0     -5.6573207     23  2.500                                                                 
     0      0.7416693     23  2.500                                                                 
     1     -2.7211652     23  2.600                                                                 
     1     20.4087390     23  2.600                                                                 
     3     -1.3605826     23  2.500                                                                 
  local pseudopotential read in
  partial core-charges read in
  partial kinetic energy density read in
  atomic valenz-charges read in
  non local Contribution for L=           2  read in
    real space projection operators read in
  non local Contribution for L=           2  read in
    real space projection operators read in
  non local Contribution for L=           0  read in
    real space projection operators read in
  non local Contribution for L=           0  read in
    real space projection operators read in
  non local Contribution for L=           1  read in
    real space projection operators read in
  non local Contribution for L=           1  read in
    real space projection operators read in
    PAW grid and wavefunctions read in
 
   number of l-projection  operators is LMAX  =           6
   number of lm-projection operators is LMMAX =          18
 
  PAW_PBE Fe_pv 02Aug2007               :
 energy of atom  1       EATOM=-2457.4239
 kinetic energy error for atom=    0.0062 (will be added to EATOM!!)
  PAW_PBE Pt 04Feb2005                  :
 energy of atom  2       EATOM= -729.1176
 kinetic energy error for atom=    0.0032 (will be added to EATOM!!)
 
 
 POSCAR: Fe9 Pt3
  positions in direct lattice
  velocities in cartesian coordinates


 exchange-correlation table for PE
   RHO(1)=    0.500       N(1)  =     2000
   RHO(2)=  100.500       N(2)  =     4000
 


--------------------------------------------------------------------------------------------------------


 ion  position               nearest neighbor table
   1  1.000  0.500  0.167-   4 2.53   4 2.53   5 2.53   5 2.53   7 2.53   7 2.53   7 2.53   7 2.53
                            10 2.56  10 2.56  11 2.56  11 2.56
   2  0.000  0.500  0.500-  11 2.53  11 2.53   8 2.53   8 2.53   8 2.53   8 2.53  12 2.55  12 2.55
                             6 2.55   6 2.55   5 2.55   5 2.55
   3  0.000  0.500  0.834-  10 2.52  10 2.52   9 2.53   9 2.53   9 2.53   9 2.53   6 2.55   6 2.55
                            12 2.55  12 2.55   4 2.55   4 2.55
   4  0.500  0.500  0.001-   7 2.53   1 2.53   7 2.53   1 2.53  10 2.53  10 2.53  10 2.53  10 2.53
                             9 2.55   3 2.55   3 2.55   9 2.55
   5  0.500  0.500  0.332-   1 2.53   7 2.53   7 2.53   1 2.53  11 2.53  11 2.53  11 2.53  11 2.53
                             8 2.55   2 2.55   2 2.55   8 2.55
   6  0.500  0.500  0.667-  12 2.53  12 2.53  12 2.53  12 2.53   9 2.55   9 2.55   3 2.55   3 2.55
                             8 2.55   8 2.55   2 2.55   2 2.55
   7  0.500  1.000  0.167-   4 2.53   4 2.53   5 2.53   5 2.53   1 2.53   1 2.53   1 2.53   1 2.53
                            10 2.56  10 2.56  11 2.56  11 2.56
   8  0.500  0.000  0.500-  11 2.53  11 2.53   2 2.53   2 2.53   2 2.53   2 2.53  12 2.55  12 2.55
                             6 2.55   6 2.55   5 2.55   5 2.55
   9  0.500  0.000  0.834-  10 2.52  10 2.52   3 2.53   3 2.53   3 2.53   3 2.53   6 2.55   6 2.55
                            12 2.55  12 2.55   4 2.55   4 2.55
  10  0.000  1.000  0.998-   3 2.52   9 2.52   3 2.52   9 2.52   4 2.53   4 2.53   4 2.53   4 2.53
                             1 2.56   7 2.56   7 2.56   1 2.56
  11  1.000  0.000  0.335-   2 2.53   8 2.53   2 2.53   8 2.53   5 2.53   5 2.53   5 2.53   5 2.53
                             1 2.56   1 2.56   7 2.56   7 2.56
  12  1.000  1.000  0.667-   6 2.53   6 2.53   6 2.53   6 2.53   8 2.55   2 2.55   8 2.55   2 2.55
                             9 2.55   9 2.55   3 2.55   3 2.55
 

IMPORTANT INFORMATION: All symmetrisations will be switched off!
NOSYMM: (Re-)initialisation of all symmetry stuff for point group C_1.


----------------------------------------------------------------------------------------

                                     Primitive cell                                     

  volume of cell :     139.0000

  direct lattice vectors                    reciprocal lattice vectors
     3.583254790  0.000000016  0.000000002     0.279075885 -0.000000001 -0.000000001
     0.000000017  3.583254685  0.000000000    -0.000000001  0.279075893  0.000000001
     0.000000030 -0.000000025 10.825785874    -0.000000000 -0.000000000  0.092372047

  length of vectors
     3.583254790  3.583254685 10.825785874     0.279075885  0.279075893  0.092372047

  position of ions in fractional coordinates (direct lattice)
     0.999999983  0.499999998  0.166637968
     0.000000030  0.499999989  0.499684532
     0.000000003  0.500000006  0.833677593
     0.499999971  0.499999965  0.001434108
     0.500000032  0.500000034  0.331868887
     0.500000002  0.499999998  0.666697543
     0.499999987  0.999999995  0.166637965
     0.500000009  0.000000010  0.499684541
     0.499999994  0.000000021  0.833677583
     0.000000003  0.999999973  0.997990630
     0.999999988  0.000000016  0.335330034
     0.999999997  0.999999996  0.666678616

  ion indices of the primitive-cell ions
   primitive index   ion index
                 1           1
                 2           2
                 3           3
                 4           4
                 5           5
                 6           6
                 7           7
                 8           8
                 9           9
                10          10
                11          11
                12          12

----------------------------------------------------------------------------------------

 
 
 KPOINTS: pymatgen with grid density = 8800 / numb

Automatic generation of k-mesh.
 Grid dimensions read from file:
 generate k-points for:   13   13    4

 Generating k-lattice:

  Cartesian coordinates                     Fractional coordinates (reciprocal lattice)
     0.021467376 -0.000000000 -0.000000000     0.076923077  0.000000000  0.000000000
    -0.000000000  0.021467376  0.000000000    -0.000000000  0.076923077  0.000000000
    -0.000000000 -0.000000000  0.023093012    -0.000000000  0.000000000  0.250000000

  Length of vectors
     0.021467376  0.021467376  0.023093012

  Shift w.r.t. Gamma in fractional coordinates (k-lattice)
     0.000000000  0.000000000  0.000000000

 
 Subroutine IBZKPT returns following result:
 ===========================================
 
 Found    339 irreducible k-points:
 
 Following reciprocal coordinates:
            Coordinates               Weight
  0.000000  0.000000  0.000000      1.000000
  0.076923  0.000000  0.000000      2.000000
 -0.000000  0.076923  0.000000      2.000000
  0.153846  0.000000  0.000000      2.000000
  0.000000  0.153846  0.000000      2.000000
  0.230769  0.000000  0.000000      2.000000
  0.000000  0.230769  0.000000      2.000000
  0.307692  0.000000  0.000000      2.000000
 -0.000000  0.307692  0.000000      2.000000
  0.384615  0.000000  0.000000      2.000000
  0.000000  0.384615  0.000000      2.000000
  0.461538  0.000000  0.000000      2.000000
  0.000000  0.461538  0.000000      2.000000
  0.076923  0.076923  0.000000      2.000000
 -0.076923  0.076923  0.000000      2.000000
  0.153846  0.076923  0.000000      2.000000
 -0.076923  0.153846  0.000000      2.000000
 -0.153846  0.076923  0.000000      2.000000
  0.076923  0.153846  0.000000      2.000000
  0.230769  0.076923  0.000000      2.000000
 -0.076923  0.230769  0.000000      2.000000
 -0.230769  0.076923  0.000000      2.000000
  0.076923  0.230769  0.000000      2.000000
  0.307692  0.076923  0.000000      2.000000
 -0.076923  0.307692  0.000000      2.000000
 -0.307692  0.076923  0.000000      2.000000
  0.076923  0.307692 -0.000000      2.000000
  0.384615  0.076923  0.000000      2.000000
 -0.076923  0.384615  0.000000      2.000000
 -0.384615  0.076923  0.000000      2.000000
  0.076923  0.384615  0.000000      2.000000
  0.461538  0.076923  0.000000      2.000000
 -0.076923  0.461538  0.000000      2.000000
 -0.461538  0.076923  0.000000      2.000000
  0.076923  0.461538  0.000000      2.000000
  0.153846  0.153846  0.000000      2.000000
 -0.153846  0.153846  0.000000      2.000000
  0.230769  0.153846  0.000000      2.000000
 -0.153846  0.230769  0.000000      2.000000
 -0.230769  0.153846  0.000000      2.000000
  0.153846  0.230769  0.000000      2.000000
  0.307692  0.153846  0.000000      2.000000
 -0.153846  0.307692  0.000000      2.000000
 -0.307692  0.153846  0.000000      2.000000
  0.153846  0.307692 -0.000000      2.000000
  0.384615  0.153846  0.000000      2.000000
 -0.153846  0.384615  0.000000      2.000000
 -0.384615  0.153846  0.000000      2.000000
  0.153846  0.384615 -0.000000      2.000000
  0.461538  0.153846  0.000000      2.000000
 -0.153846  0.461538  0.000000      2.000000
 -0.461538  0.153846  0.000000      2.000000
  0.153846  0.461538  0.000000      2.000000
  0.230769  0.230769  0.000000      2.000000
 -0.230769  0.230769  0.000000      2.000000
  0.307692  0.230769  0.000000      2.000000
 -0.230769  0.307692  0.000000      2.000000
 -0.307692  0.230769  0.000000      2.000000
  0.230769  0.307692 -0.000000      2.000000
  0.384615  0.230769  0.000000      2.000000
 -0.230769  0.384615  0.000000      2.000000
 -0.384615  0.230769  0.000000      2.000000
  0.230769  0.384615 -0.000000      2.000000
  0.461538  0.230769  0.000000      2.000000
 -0.230769  0.461538  0.000000      2.000000
 -0.461538  0.230769  0.000000      2.000000
  0.230769  0.461538  0.000000      2.000000
  0.307692  0.307692 -0.000000      2.000000
 -0.307692  0.307692 -0.000000      2.000000
  0.384615  0.307692 -0.000000      2.000000
 -0.307692  0.384615 -0.000000      2.000000
 -0.384615  0.307692  0.000000      2.000000
  0.307692  0.384615  0.000000      2.000000
  0.461538  0.307692 -0.000000      2.000000
 -0.307692  0.461538 -0.000000      2.000000
 -0.461538  0.307692  0.000000      2.000000
  0.307692  0.461538  0.000000      2.000000
  0.384615  0.384615 -0.000000      2.000000
 -0.384615  0.384615 -0.000000      2.000000
  0.461538  0.384615 -0.000000      2.000000
 -0.384615  0.461538 -0.000000      2.000000
 -0.461538  0.384615  0.000000      2.000000
  0.384615  0.461538  0.000000      2.000000
  0.461538  0.461538  0.000000      2.000000
 -0.461538  0.461538  0.000000      2.000000
  0.000000  0.000000  0.250000      2.000000
  0.076923  0.000000  0.250000      2.000000
 -0.000000  0.076923  0.250000      2.000000
 -0.076923  0.000000  0.250000      2.000000
  0.000000 -0.076923  0.250000      2.000000
  0.153846  0.000000  0.250000      2.000000
  0.000000  0.153846  0.250000      2.000000
 -0.153846  0.000000  0.250000      2.000000
  0.000000 -0.153846  0.250000      2.000000
  0.230769  0.000000  0.250000      2.000000
  0.000000  0.230769  0.250000      2.000000
 -0.230769  0.000000  0.250000      2.000000
  0.000000 -0.230769  0.250000      2.000000
  0.307692  0.000000  0.250000      2.000000
 -0.000000  0.307692  0.250000      2.000000
 -0.307692  0.000000  0.250000      2.000000
  0.000000 -0.307692  0.250000      2.000000
  0.384615  0.000000  0.250000      2.000000
 -0.000000  0.384615  0.250000      2.000000
 -0.384615 -0.000000  0.250000      2.000000
  0.000000 -0.384615  0.250000      2.000000
  0.461538  0.000000  0.250000      2.000000
  0.000000  0.461538  0.250000      2.000000
 -0.461538  0.000000  0.250000      2.000000
  0.000000 -0.461538  0.250000      2.000000
  0.076923  0.076923  0.250000      2.000000
 -0.076923  0.076923  0.250000      2.000000
 -0.076923 -0.076923  0.250000      2.000000
  0.076923 -0.076923  0.250000      2.000000
  0.153846  0.076923  0.250000      2.000000
 -0.076923  0.153846  0.250000      2.000000
 -0.153846 -0.076923  0.250000      2.000000
  0.076923 -0.153846  0.250000      2.000000
 -0.153846  0.076923 -0.250000      2.000000
  0.076923  0.153846 -0.250000      2.000000
  0.153846 -0.076923 -0.250000      2.000000
 -0.076923 -0.153846 -0.250000      2.000000
  0.230769  0.076923  0.250000      2.000000
 -0.076923  0.230769  0.250000      2.000000
 -0.230769 -0.076923  0.250000      2.000000
  0.076923 -0.230769  0.250000      2.000000
 -0.230769  0.076923 -0.250000      2.000000
  0.076923  0.230769 -0.250000      2.000000
  0.230769 -0.076923 -0.250000      2.000000
 -0.076923 -0.230769 -0.250000      2.000000
  0.307692  0.076923  0.250000      2.000000
 -0.076923  0.307692  0.250000      2.000000
 -0.307692 -0.076923  0.250000      2.000000
  0.076923 -0.307692  0.250000      2.000000
 -0.307692  0.076923 -0.250000      2.000000
  0.076923  0.307692 -0.250000      2.000000
  0.307692 -0.076923 -0.250000      2.000000
 -0.076923 -0.307692 -0.250000      2.000000
  0.384615  0.076923  0.250000      2.000000
 -0.076923  0.384615  0.250000      2.000000
 -0.384615 -0.076923  0.250000      2.000000
  0.076923 -0.384615  0.250000      2.000000
 -0.384615  0.076923 -0.250000      2.000000
  0.076923  0.384615 -0.250000      2.000000
  0.384615 -0.076923 -0.250000      2.000000
 -0.076923 -0.384615 -0.250000      2.000000
  0.461538  0.076923  0.250000      2.000000
 -0.076923  0.461538  0.250000      2.000000
 -0.461538 -0.076923  0.250000      2.000000
  0.076923 -0.461538  0.250000      2.000000
 -0.461538  0.076923 -0.250000      2.000000
  0.076923  0.461538 -0.250000      2.000000
  0.461538 -0.076923 -0.250000      2.000000
 -0.076923 -0.461538 -0.250000      2.000000
  0.153846  0.153846  0.250000      2.000000
 -0.153846  0.153846  0.250000      2.000000
 -0.153846 -0.153846  0.250000      2.000000
  0.153846 -0.153846  0.250000      2.000000
  0.230769  0.153846  0.250000      2.000000
 -0.153846  0.230769  0.250000      2.000000
 -0.230769 -0.153846  0.250000      2.000000
  0.153846 -0.230769  0.250000      2.000000
 -0.230769  0.153846 -0.250000      2.000000
  0.153846  0.230769 -0.250000      2.000000
  0.230769 -0.153846 -0.250000      2.000000
 -0.153846 -0.230769 -0.250000      2.000000
  0.307692  0.153846  0.250000      2.000000
 -0.153846  0.307692  0.250000      2.000000
 -0.307692 -0.153846  0.250000      2.000000
  0.153846 -0.307692  0.250000      2.000000
 -0.307692  0.153846 -0.250000      2.000000
  0.153846  0.307692 -0.250000      2.000000
  0.307692 -0.153846 -0.250000      2.000000
 -0.153846 -0.307692 -0.250000      2.000000
  0.384615  0.153846  0.250000      2.000000
 -0.153846  0.384615  0.250000      2.000000
 -0.384615 -0.153846  0.250000      2.000000
  0.153846 -0.384615  0.250000      2.000000
 -0.384615  0.153846 -0.250000      2.000000
  0.153846  0.384615 -0.250000      2.000000
  0.384615 -0.153846 -0.250000      2.000000
 -0.153846 -0.384615 -0.250000      2.000000
  0.461538  0.153846  0.250000      2.000000
 -0.153846  0.461538  0.250000      2.000000
 -0.461538 -0.153846  0.250000      2.000000
  0.153846 -0.461538  0.250000      2.000000
 -0.461538  0.153846 -0.250000      2.000000
  0.153846  0.461538 -0.250000      2.000000
  0.461538 -0.153846 -0.250000      2.000000
 -0.153846 -0.461538 -0.250000      2.000000
  0.230769  0.230769  0.250000      2.000000
 -0.230769  0.230769  0.250000      2.000000
 -0.230769 -0.230769  0.250000      2.000000
  0.230769 -0.230769  0.250000      2.000000
  0.307692  0.230769  0.250000      2.000000
 -0.230769  0.307692  0.250000      2.000000
 -0.307692 -0.230769  0.250000      2.000000
  0.230769 -0.307692  0.250000      2.000000
 -0.307692  0.230769 -0.250000      2.000000
  0.230769  0.307692 -0.250000      2.000000
  0.307692 -0.230769 -0.250000      2.000000
 -0.230769 -0.307692 -0.250000      2.000000
  0.384615  0.230769  0.250000      2.000000
 -0.230769  0.384615  0.250000      2.000000
 -0.384615 -0.230769  0.250000      2.000000
  0.230769 -0.384615  0.250000      2.000000
 -0.384615  0.230769 -0.250000      2.000000
  0.230769  0.384615 -0.250000      2.000000
  0.384615 -0.230769 -0.250000      2.000000
 -0.230769 -0.384615 -0.250000      2.000000
  0.461538  0.230769  0.250000      2.000000
 -0.230769  0.461538  0.250000      2.000000
 -0.461538 -0.230769  0.250000      2.000000
  0.230769 -0.461538  0.250000      2.000000
 -0.461538  0.230769 -0.250000      2.000000
  0.230769  0.461538 -0.250000      2.000000
  0.461538 -0.230769 -0.250000      2.000000
 -0.230769 -0.461538 -0.250000      2.000000
  0.307692  0.307692  0.250000      2.000000
 -0.307692  0.307692  0.250000      2.000000
 -0.307692 -0.307692  0.250000      2.000000
  0.307692 -0.307692  0.250000      2.000000
  0.384615  0.307692  0.250000      2.000000
 -0.307692  0.384615  0.250000      2.000000
 -0.384615 -0.307692  0.250000      2.000000
  0.307692 -0.384615  0.250000      2.000000
 -0.384615  0.307692 -0.250000      2.000000
  0.307692  0.384615 -0.250000      2.000000
  0.384615 -0.307692 -0.250000      2.000000
 -0.307692 -0.384615 -0.250000      2.000000
  0.461538  0.307692  0.250000      2.000000
 -0.307692  0.461538  0.250000      2.000000
 -0.461538 -0.307692  0.250000      2.000000
  0.307692 -0.461538  0.250000      2.000000
 -0.461538  0.307692 -0.250000      2.000000
  0.307692  0.461538 -0.250000      2.000000
  0.461538 -0.307692 -0.250000      2.000000
 -0.307692 -0.461538 -0.250000      2.000000
  0.384615  0.384615  0.250000      2.000000
 -0.384615  0.384615  0.250000      2.000000
 -0.384615 -0.384615  0.250000      2.000000
  0.384615 -0.384615  0.250000      2.000000
  0.461538  0.384615  0.250000      2.000000
 -0.384615  0.461538  0.250000      2.000000
 -0.461538 -0.384615  0.250000      2.000000
  0.384615 -0.461538  0.250000      2.000000
 -0.461538  0.384615 -0.250000      2.000000
  0.384615  0.461538 -0.250000      2.000000
  0.461538 -0.384615 -0.250000      2.000000
 -0.384615 -0.461538 -0.250000      2.000000
  0.461538  0.461538  0.250000      2.000000
 -0.461538  0.461538  0.250000      2.000000
 -0.461538 -0.461538  0.250000      2.000000
  0.461538 -0.461538  0.250000      2.000000
  0.000000  0.000000  0.500000      1.000000
  0.076923  0.000000  0.500000      2.000000
 -0.000000  0.076923  0.500000      2.000000
  0.153846  0.000000  0.500000      2.000000
  0.000000  0.153846  0.500000      2.000000
  0.230769  0.000000  0.500000      2.000000
 -0.000000  0.230769  0.500000      2.000000
  0.307692  0.000000  0.500000      2.000000
 -0.000000  0.307692  0.500000      2.000000
  0.384615  0.000000  0.500000      2.000000
 -0.000000  0.384615  0.500000      2.000000
  0.461538  0.000000  0.500000      2.000000
 -0.000000  0.461538  0.500000      2.000000
  0.076923  0.076923  0.500000      2.000000
 -0.076923  0.076923  0.500000      2.000000
  0.153846  0.076923  0.500000      2.000000
 -0.076923  0.153846  0.500000      2.000000
 -0.153846  0.076923  0.500000      2.000000
  0.076923  0.153846  0.500000      2.000000
  0.230769  0.076923  0.500000      2.000000
 -0.076923  0.230769  0.500000      2.000000
 -0.230769  0.076923  0.500000      2.000000
  0.076923  0.230769  0.500000      2.000000
  0.307692  0.076923  0.500000      2.000000
 -0.076923  0.307692  0.500000      2.000000
 -0.307692  0.076923  0.500000      2.000000
  0.076923  0.307692  0.500000      2.000000
  0.384615  0.076923  0.500000      2.000000
 -0.076923  0.384615  0.500000      2.000000
 -0.384615  0.076923  0.500000      2.000000
  0.076923  0.384615  0.500000      2.000000
  0.461538  0.076923  0.500000      2.000000
 -0.076923  0.461538  0.500000      2.000000
 -0.461538  0.076923  0.500000      2.000000
  0.076923  0.461538  0.500000      2.000000
  0.153846  0.153846  0.500000      2.000000
 -0.153846  0.153846  0.500000      2.000000
  0.230769  0.153846  0.500000      2.000000
 -0.153846  0.230769  0.500000      2.000000
 -0.230769  0.153846  0.500000      2.000000
  0.153846  0.230769  0.500000      2.000000
  0.307692  0.153846  0.500000      2.000000
 -0.153846  0.307692  0.500000      2.000000
 -0.307692  0.153846  0.500000      2.000000
  0.153846  0.307692  0.500000      2.000000
  0.384615  0.153846  0.500000      2.000000
 -0.153846  0.384615  0.500000      2.000000
 -0.384615  0.153846  0.500000      2.000000
  0.153846  0.384615  0.500000      2.000000
  0.461538  0.153846  0.500000      2.000000
 -0.153846  0.461538  0.500000      2.000000
 -0.461538  0.153846  0.500000      2.000000
  0.153846  0.461538  0.500000      2.000000
  0.230769  0.230769  0.500000      2.000000
 -0.230769  0.230769  0.500000      2.000000
  0.307692  0.230769  0.500000      2.000000
 -0.230769  0.307692  0.500000      2.000000
 -0.307692  0.230769  0.500000      2.000000
  0.230769  0.307692  0.500000      2.000000
  0.384615  0.230769  0.500000      2.000000
 -0.230769  0.384615  0.500000      2.000000
 -0.384615  0.230769  0.500000      2.000000
  0.230769  0.384615  0.500000      2.000000
  0.461538  0.230769  0.500000      2.000000
 -0.230769  0.461538  0.500000      2.000000
 -0.461538  0.230769  0.500000      2.000000
  0.230769  0.461538  0.500000      2.000000
  0.307692  0.307692  0.500000      2.000000
 -0.307692  0.307692  0.500000      2.000000
  0.384615  0.307692  0.500000      2.000000
 -0.307692  0.384615  0.500000      2.000000
 -0.384615  0.307692  0.500000      2.000000
  0.307692  0.384615  0.500000      2.000000
  0.461538  0.307692  0.500000      2.000000
 -0.307692  0.461538  0.500000      2.000000
 -0.461538  0.307692  0.500000      2.000000
  0.307692  0.461538  0.500000      2.000000
  0.384615  0.384615  0.500000      2.000000
 -0.384615  0.384615  0.500000      2.000000
  0.461538  0.384615  0.500000      2.000000
 -0.384615  0.461538  0.500000      2.000000
 -0.461538  0.384615  0.500000      2.000000
  0.384615  0.461538  0.500000      2.000000
  0.461538  0.461538  0.500000      2.000000
 -0.461538  0.461538  0.500000      2.000000
 
 Following cartesian coordinates:
            Coordinates               Weight
  0.000000  0.000000  0.000000      1.000000
  0.021467 -0.000000 -0.000000      2.000000
 -0.000000  0.021467  0.000000      2.000000
  0.042935 -0.000000 -0.000000      2.000000
 -0.000000  0.042935  0.000000      2.000000
  0.064402 -0.000000 -0.000000      2.000000
 -0.000000  0.064402  0.000000      2.000000
  0.085870 -0.000000 -0.000000      2.000000
 -0.000000  0.085870  0.000000      2.000000
  0.107337 -0.000000 -0.000000      2.000000
 -0.000000  0.107337  0.000000      2.000000
  0.128804 -0.000000 -0.000000      2.000000
 -0.000000  0.128804  0.000000      2.000000
  0.021467  0.021467 -0.000000      2.000000
 -0.021467  0.021467  0.000000      2.000000
  0.042935  0.021467 -0.000000      2.000000
 -0.021467  0.042935  0.000000      2.000000
 -0.042935  0.021467  0.000000      2.000000
  0.021467  0.042935  0.000000      2.000000
  0.064402  0.021467 -0.000000      2.000000
 -0.021467  0.064402  0.000000      2.000000
 -0.064402  0.021467  0.000000      2.000000
  0.021467  0.064402  0.000000      2.000000
  0.085870  0.021467 -0.000000      2.000000
 -0.021467  0.085870  0.000000      2.000000
 -0.085870  0.021467  0.000000      2.000000
  0.021467  0.085870  0.000000      2.000000
  0.107337  0.021467 -0.000000      2.000000
 -0.021467  0.107337  0.000000      2.000000
 -0.107337  0.021467  0.000000      2.000000
  0.021467  0.107337  0.000000      2.000000
  0.128804  0.021467 -0.000000      2.000000
 -0.021467  0.128804  0.000000      2.000000
 -0.128804  0.021467  0.000000      2.000000
  0.021467  0.128804  0.000000      2.000000
  0.042935  0.042935 -0.000000      2.000000
 -0.042935  0.042935  0.000000      2.000000
  0.064402  0.042935 -0.000000      2.000000
 -0.042935  0.064402  0.000000      2.000000
 -0.064402  0.042935  0.000000      2.000000
  0.042935  0.064402  0.000000      2.000000
  0.085870  0.042935 -0.000000      2.000000
 -0.042935  0.085870  0.000000      2.000000
 -0.085870  0.042935  0.000000      2.000000
  0.042935  0.085870  0.000000      2.000000
  0.107337  0.042935 -0.000000      2.000000
 -0.042935  0.107337  0.000000      2.000000
 -0.107337  0.042935  0.000000      2.000000
  0.042935  0.107337  0.000000      2.000000
  0.128804  0.042935 -0.000000      2.000000
 -0.042935  0.128804  0.000000      2.000000
 -0.128804  0.042935  0.000000      2.000000
  0.042935  0.128804  0.000000      2.000000
  0.064402  0.064402 -0.000000      2.000000
 -0.064402  0.064402  0.000000      2.000000
  0.085870  0.064402 -0.000000      2.000000
 -0.064402  0.085870  0.000000      2.000000
 -0.085870  0.064402  0.000000      2.000000
  0.064402  0.085870  0.000000      2.000000
  0.107337  0.064402 -0.000000      2.000000
 -0.064402  0.107337  0.000000      2.000000
 -0.107337  0.064402  0.000000      2.000000
  0.064402  0.107337  0.000000      2.000000
  0.128804  0.064402 -0.000000      2.000000
 -0.064402  0.128804  0.000000      2.000000
 -0.128804  0.064402  0.000000      2.000000
  0.064402  0.128804  0.000000      2.000000
  0.085870  0.085870 -0.000000      2.000000
 -0.085870  0.085870  0.000000      2.000000
  0.107337  0.085870 -0.000000      2.000000
 -0.085870  0.107337  0.000000      2.000000
 -0.107337  0.085870  0.000000      2.000000
  0.085870  0.107337  0.000000      2.000000
  0.128804  0.085870 -0.000000      2.000000
 -0.085870  0.128804  0.000000      2.000000
 -0.128804  0.085870  0.000000      2.000000
  0.085870  0.128804  0.000000      2.000000
  0.107337  0.107337 -0.000000      2.000000
 -0.107337  0.107337  0.000000      2.000000
  0.128804  0.107337 -0.000000      2.000000
 -0.107337  0.128804  0.000000      2.000000
 -0.128804  0.107337  0.000000      2.000000
  0.107337  0.128804 -0.000000      2.000000
  0.128804  0.128804 -0.000000      2.000000
 -0.128804  0.128804  0.000000      2.000000
 -0.000000 -0.000000  0.023093      2.000000
  0.021467 -0.000000  0.023093      2.000000
 -0.000000  0.021467  0.023093      2.000000
 -0.021467  0.000000  0.023093      2.000000
  0.000000 -0.021467  0.023093      2.000000
  0.042935 -0.000000  0.023093      2.000000
 -0.000000  0.042935  0.023093      2.000000
 -0.042935  0.000000  0.023093      2.000000
  0.000000 -0.042935  0.023093      2.000000
  0.064402 -0.000000  0.023093      2.000000
 -0.000000  0.064402  0.023093      2.000000
 -0.064402  0.000000  0.023093      2.000000
  0.000000 -0.064402  0.023093      2.000000
  0.085870 -0.000000  0.023093      2.000000
 -0.000000  0.085870  0.023093      2.000000
 -0.085870  0.000000  0.023093      2.000000
  0.000000 -0.085870  0.023093      2.000000
  0.107337 -0.000000  0.023093      2.000000
 -0.000000  0.107337  0.023093      2.000000
 -0.107337  0.000000  0.023093      2.000000
  0.000000 -0.107337  0.023093      2.000000
  0.128804 -0.000000  0.023093      2.000000
 -0.000000  0.128804  0.023093      2.000000
 -0.128804  0.000000  0.023093      2.000000
  0.000000 -0.128804  0.023093      2.000000
  0.021467  0.021467  0.023093      2.000000
 -0.021467  0.021467  0.023093      2.000000
 -0.021467 -0.021467  0.023093      2.000000
  0.021467 -0.021467  0.023093      2.000000
  0.042935  0.021467  0.023093      2.000000
 -0.021467  0.042935  0.023093      2.000000
 -0.042935 -0.021467  0.023093      2.000000
  0.021467 -0.042935  0.023093      2.000000
 -0.042935  0.021467 -0.023093      2.000000
  0.021467  0.042935 -0.023093      2.000000
  0.042935 -0.021467 -0.023093      2.000000
 -0.021467 -0.042935 -0.023093      2.000000
  0.064402  0.021467  0.023093      2.000000
 -0.021467  0.064402  0.023093      2.000000
 -0.064402 -0.021467  0.023093      2.000000
  0.021467 -0.064402  0.023093      2.000000
 -0.064402  0.021467 -0.023093      2.000000
  0.021467  0.064402 -0.023093      2.000000
  0.064402 -0.021467 -0.023093      2.000000
 -0.021467 -0.064402 -0.023093      2.000000
  0.085870  0.021467  0.023093      2.000000
 -0.021467  0.085870  0.023093      2.000000
 -0.085870 -0.021467  0.023093      2.000000
  0.021467 -0.085870  0.023093      2.000000
 -0.085870  0.021467 -0.023093      2.000000
  0.021467  0.085870 -0.023093      2.000000
  0.085870 -0.021467 -0.023093      2.000000
 -0.021467 -0.085870 -0.023093      2.000000
  0.107337  0.021467  0.023093      2.000000
 -0.021467  0.107337  0.023093      2.000000
 -0.107337 -0.021467  0.023093      2.000000
  0.021467 -0.107337  0.023093      2.000000
 -0.107337  0.021467 -0.023093      2.000000
  0.021467  0.107337 -0.023093      2.000000
  0.107337 -0.021467 -0.023093      2.000000
 -0.021467 -0.107337 -0.023093      2.000000
  0.128804  0.021467  0.023093      2.000000
 -0.021467  0.128804  0.023093      2.000000
 -0.128804 -0.021467  0.023093      2.000000
  0.021467 -0.128804  0.023093      2.000000
 -0.128804  0.021467 -0.023093      2.000000
  0.021467  0.128804 -0.023093      2.000000
  0.128804 -0.021467 -0.023093      2.000000
 -0.021467 -0.128804 -0.023093      2.000000
  0.042935  0.042935  0.023093      2.000000
 -0.042935  0.042935  0.023093      2.000000
 -0.042935 -0.042935  0.023093      2.000000
  0.042935 -0.042935  0.023093      2.000000
  0.064402  0.042935  0.023093      2.000000
 -0.042935  0.064402  0.023093      2.000000
 -0.064402 -0.042935  0.023093      2.000000
  0.042935 -0.064402  0.023093      2.000000
 -0.064402  0.042935 -0.023093      2.000000
  0.042935  0.064402 -0.023093      2.000000
  0.064402 -0.042935 -0.023093      2.000000
 -0.042935 -0.064402 -0.023093      2.000000
  0.085870  0.042935  0.023093      2.000000
 -0.042935  0.085870  0.023093      2.000000
 -0.085870 -0.042935  0.023093      2.000000
  0.042935 -0.085870  0.023093      2.000000
 -0.085870  0.042935 -0.023093      2.000000
  0.042935  0.085870 -0.023093      2.000000
  0.085870 -0.042935 -0.023093      2.000000
 -0.042935 -0.085870 -0.023093      2.000000
  0.107337  0.042935  0.023093      2.000000
 -0.042935  0.107337  0.023093      2.000000
 -0.107337 -0.042935  0.023093      2.000000
  0.042935 -0.107337  0.023093      2.000000
 -0.107337  0.042935 -0.023093      2.000000
  0.042935  0.107337 -0.023093      2.000000
  0.107337 -0.042935 -0.023093      2.000000
 -0.042935 -0.107337 -0.023093      2.000000
  0.128804  0.042935  0.023093      2.000000
 -0.042935  0.128804  0.023093      2.000000
 -0.128804 -0.042935  0.023093      2.000000
  0.042935 -0.128804  0.023093      2.000000
 -0.128804  0.042935 -0.023093      2.000000
  0.042935  0.128804 -0.023093      2.000000
  0.128804 -0.042935 -0.023093      2.000000
 -0.042935 -0.128804 -0.023093      2.000000
  0.064402  0.064402  0.023093      2.000000
 -0.064402  0.064402  0.023093      2.000000
 -0.064402 -0.064402  0.023093      2.000000
  0.064402 -0.064402  0.023093      2.000000
  0.085870  0.064402  0.023093      2.000000
 -0.064402  0.085870  0.023093      2.000000
 -0.085870 -0.064402  0.023093      2.000000
  0.064402 -0.085870  0.023093      2.000000
 -0.085870  0.064402 -0.023093      2.000000
  0.064402  0.085870 -0.023093      2.000000
  0.085870 -0.064402 -0.023093      2.000000
 -0.064402 -0.085870 -0.023093      2.000000
  0.107337  0.064402  0.023093      2.000000
 -0.064402  0.107337  0.023093      2.000000
 -0.107337 -0.064402  0.023093      2.000000
  0.064402 -0.107337  0.023093      2.000000
 -0.107337  0.064402 -0.023093      2.000000
  0.064402  0.107337 -0.023093      2.000000
  0.107337 -0.064402 -0.023093      2.000000
 -0.064402 -0.107337 -0.023093      2.000000
  0.128804  0.064402  0.023093      2.000000
 -0.064402  0.128804  0.023093      2.000000
 -0.128804 -0.064402  0.023093      2.000000
  0.064402 -0.128804  0.023093      2.000000
 -0.128804  0.064402 -0.023093      2.000000
  0.064402  0.128804 -0.023093      2.000000
  0.128804 -0.064402 -0.023093      2.000000
 -0.064402 -0.128804 -0.023093      2.000000
  0.085870  0.085870  0.023093      2.000000
 -0.085870  0.085870  0.023093      2.000000
 -0.085870 -0.085870  0.023093      2.000000
  0.085870 -0.085870  0.023093      2.000000
  0.107337  0.085870  0.023093      2.000000
 -0.085870  0.107337  0.023093      2.000000
 -0.107337 -0.085870  0.023093      2.000000
  0.085870 -0.107337  0.023093      2.000000
 -0.107337  0.085870 -0.023093      2.000000
  0.085870  0.107337 -0.023093      2.000000
  0.107337 -0.085870 -0.023093      2.000000
 -0.085870 -0.107337 -0.023093      2.000000
  0.128804  0.085870  0.023093      2.000000
 -0.085870  0.128804  0.023093      2.000000
 -0.128804 -0.085870  0.023093      2.000000
  0.085870 -0.128804  0.023093      2.000000
 -0.128804  0.085870 -0.023093      2.000000
  0.085870  0.128804 -0.023093      2.000000
  0.128804 -0.085870 -0.023093      2.000000
 -0.085870 -0.128804 -0.023093      2.000000
  0.107337  0.107337  0.023093      2.000000
 -0.107337  0.107337  0.023093      2.000000
 -0.107337 -0.107337  0.023093      2.000000
  0.107337 -0.107337  0.023093      2.000000
  0.128804  0.107337  0.023093      2.000000
 -0.107337  0.128804  0.023093      2.000000
 -0.128804 -0.107337  0.023093      2.000000
  0.107337 -0.128804  0.023093      2.000000
 -0.128804  0.107337 -0.023093      2.000000
  0.107337  0.128804 -0.023093      2.000000
  0.128804 -0.107337 -0.023093      2.000000
 -0.107337 -0.128804 -0.023093      2.000000
  0.128804  0.128804  0.023093      2.000000
 -0.128804  0.128804  0.023093      2.000000
 -0.128804 -0.128804  0.023093      2.000000
  0.128804 -0.128804  0.023093      2.000000
 -0.000000 -0.000000  0.046186      1.000000
  0.021467 -0.000000  0.046186      2.000000
 -0.000000  0.021467  0.046186      2.000000
  0.042935 -0.000000  0.046186      2.000000
 -0.000000  0.042935  0.046186      2.000000
  0.064402 -0.000000  0.046186      2.000000
 -0.000000  0.064402  0.046186      2.000000
  0.085870 -0.000000  0.046186      2.000000
 -0.000000  0.085870  0.046186      2.000000
  0.107337 -0.000000  0.046186      2.000000
 -0.000000  0.107337  0.046186      2.000000
  0.128804 -0.000000  0.046186      2.000000
 -0.000000  0.128804  0.046186      2.000000
  0.021467  0.021467  0.046186      2.000000
 -0.021467  0.021467  0.046186      2.000000
  0.042935  0.021467  0.046186      2.000000
 -0.021467  0.042935  0.046186      2.000000
 -0.042935  0.021467  0.046186      2.000000
  0.021467  0.042935  0.046186      2.000000
  0.064402  0.021467  0.046186      2.000000
 -0.021467  0.064402  0.046186      2.000000
 -0.064402  0.021467  0.046186      2.000000
  0.021467  0.064402  0.046186      2.000000
  0.085870  0.021467  0.046186      2.000000
 -0.021467  0.085870  0.046186      2.000000
 -0.085870  0.021467  0.046186      2.000000
  0.021467  0.085870  0.046186      2.000000
  0.107337  0.021467  0.046186      2.000000
 -0.021467  0.107337  0.046186      2.000000
 -0.107337  0.021467  0.046186      2.000000
  0.021467  0.107337  0.046186      2.000000
  0.128804  0.021467  0.046186      2.000000
 -0.021467  0.128804  0.046186      2.000000
 -0.128804  0.021467  0.046186      2.000000
  0.021467  0.128804  0.046186      2.000000
  0.042935  0.042935  0.046186      2.000000
 -0.042935  0.042935  0.046186      2.000000
  0.064402  0.042935  0.046186      2.000000
 -0.042935  0.064402  0.046186      2.000000
 -0.064402  0.042935  0.046186      2.000000
  0.042935  0.064402  0.046186      2.000000
  0.085870  0.042935  0.046186      2.000000
 -0.042935  0.085870  0.046186      2.000000
 -0.085870  0.042935  0.046186      2.000000
  0.042935  0.085870  0.046186      2.000000
  0.107337  0.042935  0.046186      2.000000
 -0.042935  0.107337  0.046186      2.000000
 -0.107337  0.042935  0.046186      2.000000
  0.042935  0.107337  0.046186      2.000000
  0.128804  0.042935  0.046186      2.000000
 -0.042935  0.128804  0.046186      2.000000
 -0.128804  0.042935  0.046186      2.000000
  0.042935  0.128804  0.046186      2.000000
  0.064402  0.064402  0.046186      2.000000
 -0.064402  0.064402  0.046186      2.000000
  0.085870  0.064402  0.046186      2.000000
 -0.064402  0.085870  0.046186      2.000000
 -0.085870  0.064402  0.046186      2.000000
  0.064402  0.085870  0.046186      2.000000
  0.107337  0.064402  0.046186      2.000000
 -0.064402  0.107337  0.046186      2.000000
 -0.107337  0.064402  0.046186      2.000000
  0.064402  0.107337  0.046186      2.000000
  0.128804  0.064402  0.046186      2.000000
 -0.064402  0.128804  0.046186      2.000000
 -0.128804  0.064402  0.046186      2.000000
  0.064402  0.128804  0.046186      2.000000
  0.085870  0.085870  0.046186      2.000000
 -0.085870  0.085870  0.046186      2.000000
  0.107337  0.085870  0.046186      2.000000
 -0.085870  0.107337  0.046186      2.000000
 -0.107337  0.085870  0.046186      2.000000
  0.085870  0.107337  0.046186      2.000000
  0.128804  0.085870  0.046186      2.000000
 -0.085870  0.128804  0.046186      2.000000
 -0.128804  0.085870  0.046186      2.000000
  0.085870  0.128804  0.046186      2.000000
  0.107337  0.107337  0.046186      2.000000
 -0.107337  0.107337  0.046186      2.000000
  0.128804  0.107337  0.046186      2.000000
 -0.107337  0.128804  0.046186      2.000000
 -0.128804  0.107337  0.046186      2.000000
  0.107337  0.128804  0.046186      2.000000
  0.128804  0.128804  0.046186      2.000000
 -0.128804  0.128804  0.046186      2.000000
 


--------------------------------------------------------------------------------------------------------




 Dimension of arrays:
   k-points           NKPTS =    339   k-points in BZ     NKDIM =    339   number of bands    NBANDS=     96
   number of dos      NEDOS =    301   number of ions     NIONS =     12
   non local maximal  LDIM  =      6   non local SUM 2l+1 LMDIM =     18
   total plane-waves  NPLWV =  65856
   max r-space proj   IRMAX =      1   max aug-charges    IRDMAX=  28892
   dimension x,y,z NGX =    28 NGY =   28 NGZ =   84
   dimension x,y,z NGXF=    56 NGYF=   56 NGZF=  168
   support grid    NGXF=    56 NGYF=   56 NGZF=  168
   ions per type =               9   3
   NGX,Y,Z   is equivalent  to a cutoff of  12.99, 12.99, 12.90 a.u.
   NGXF,Y,Z  is equivalent  to a cutoff of  25.98, 25.98, 25.80 a.u.

 SYSTEM =  unknown system                          
 POSCAR =  Fe9 Pt3                                 

 Startparameter for this run:
   NWRITE =      2    write-flag & timer
   PREC   = accura    normal or accurate (medium, high low for compatibility)
   ISTART =      0    job   : 0-new  1-cont  2-samecut
   ICHARG =      2    charge: 1-file 2-atom 10-const
   ISPIN  =      2    spin polarized calculation?
   LNONCOLLINEAR =      F non collinear calculations
   LSORBIT =      F    spin-orbit coupling
   INIWAV =      1    electr: 0-lowe 1-rand  2-diag
   LASPH  =      F    aspherical Exc in radial PAW
 Electronic Relaxation 1
   ENCUT  =  520.0 eV  38.22 Ry    6.18 a.u.   6.66  6.66 20.13*2*pi/ulx,y,z
   ENINI  =  520.0     initial cutoff
   ENAUG  =  578.3 eV  augmentation charge cutoff
   NELM   =    200;   NELMIN=  2; NELMDL=  0     # of ELM steps 
   EDIFF  = 0.1E-05   stopping-criterion for ELM
   LREAL  =      F    real-space projection
   NLSPLINE    = F    spline interpolate recip. space projectors
   LCOMPAT=      F    compatible to vasp.4.4
   GGA_COMPAT  = T    GGA compatible to vasp.4.4-vasp.4.6
   LMAXPAW     = -100 max onsite density
   LMAXMIX     =    2 max onsite mixed and CHGCAR
   VOSKOWN=      0    Vosko Wilk Nusair interpolation
   ROPT   =    0.00000   0.00000
 Ionic relaxation
   EDIFFG = -.1E-01   stopping-criterion for IOM
   NSW    =    100    number of steps for IOM
   NBLOCK =      1;   KBLOCK =    100    inner block; outer block 
   IBRION =      2    ionic relax: 0-MD 1-quasi-New 2-CG
   NFREE  =      1    steps in history (QN), initial steepest desc. (CG)
   ISIF   =      4    stress and relaxation
   IWAVPR =     11    prediction:  0-non 1-charg 2-wave 3-comb
   ISYM   =      0    0-nonsym 1-usesym 2-fastsym
   LCORR  =      T    Harris-Foulkes like correction to forces

   POTIM  = 0.2500    time-step for ionic-motion
   TEIN   =    0.0    initial temperature
   TEBEG  =    0.0;   TEEND  =   0.0 temperature during run
   SMASS  =  -3.00    Nose mass-parameter (am)
   estimated Nose-frequenzy (Omega)   =  0.10E-29 period in steps = 0.25E+47 mass=  -0.293E-27a.u.
   SCALEE = 1.0000    scale energy and forces
   NPACO  =    256;   APACO  = 10.0  distance and # of slots for P.C.
   PSTRESS=    0.0 pullay stress

  Mass of Ions in am
   POMASS =  55.85195.08
  Ionic Valenz
   ZVAL   =  14.00 10.00
  Atomic Wigner-Seitz radii
   RWIGS  =  -1.00 -1.00
  virtual crystal weights 
   VCA    =   1.00  1.00
   NELECT =     156.0000    total number of electrons
   NUPDOWN=      -1.0000    fix difference up-down

 DOS related values:
   EMIN   =  10.00;   EMAX   =-10.00  energy-range for DOS
   EFERMI =   0.00;   METHOD = LEGACY      
   ISMEAR =     1;   SIGMA  =   0.20  broadening in eV -4-tet -1-fermi 0-gaus

 Electronic relaxation 2 (details)
   IALGO  =     58    algorithm
   LDIAG  =      T    sub-space diagonalisation (order eigenvalues)
   LSUBROT=      F    optimize rotation matrix (better conditioning)
   TURBO    =      0    0=normal 1=particle mesh
   IRESTART =      0    0=no restart 2=restart with 2 vectors
   NREBOOT  =      0    no. of reboots
   NMIN     =      0    reboot dimension
   EREF     =   0.00    reference energy to select bands
   IMIX   =      4    mixing-type and parameters
     AMIX     =   0.40;   BMIX     =  1.00
     AMIX_MAG =   1.60;   BMIX_MAG =  1.00
     AMIN     =   0.10
     WC   =   100.;   INIMIX=   1;  MIXPRE=   1;  MAXMIX= -45

 Intra band minimization:
   WEIMIN = 0.0010     energy-eigenvalue tresh-hold
   EBREAK =  0.26E-08  absolut break condition
   DEPER  =   0.30     relativ break condition  

   TIME   =   0.40     timestep for ELM

  volume/ion in A,a.u.               =      11.58        78.17
  Fermi-wavevector in a.u.,A,eV,Ry     =   1.701289  3.214970 39.380489  2.894384
  Thomas-Fermi vector in A             =   2.781269
 
 Write flags
   LWAVE        =      F    write WAVECAR
   LDOWNSAMPLE  =      F    k-point downsampling of WAVECAR
   LCHARG       =      T    write CHGCAR
   LVTOT        =      F    write LOCPOT, total local potential
   LVHAR        =      F    write LOCPOT, Hartree potential only
   WRT_POTENTIAL= false  ! write potential to hdf5 file
   LELF         =      F    write electronic localiz. function (ELF)
   LORBIT       =     11    0 simple, 1 ext, 2 COOP (PROOUT), +10 PAW based schemes


 Dipole corrections
   LMONO      =      F    monopole corrections only (constant potential shift)
   LDIPOL     =      F    correct potential (dipole corrections)
   IDIPOL     =      0    1-x, 2-y, 3-z, 4-all directions 
   EPSILON    =  1.0000000 bulk dielectric constant
   LVACPOTAV  =      F  vacuum potentials using an averaging scheme for the charge density
   VACPOTFLAT =  0.1000000 required flatness to determine vacuum potential
 Exchange correlation treatment:
   GGA     = PE    functional components
   XC_C    = 1    coefficients multiplying the functional components
   LIBXC   =     F    Libxc                    
   VOSKOWN =     0    Vosko Wilk Nusair interpolation
   LHFCALC =     F    Hartree Fock is set to
   LHFONE  =     F    Hartree Fock one center treatment
   AEXX    =    0.0000 exact exchange contribution

 Parameters of functionals:
   PE:
     No parameter
 
 Van der Waals corrections
   IVDW    =     0    specifies the selected vdW correction

 Linear response parameters
   LEPSILON=     F    determine dielectric tensor
   LRPA    =     F    only Hartree local field effects (RPA)
   LNABLA  =     F    use nabla operator in PAW spheres
   LVEL    =     F    velocity operator in full k-point grid
   CSHIFT  =0.1000    complex shift for real part using Kramers Kronig
   OMEGAMAX=  -1.0    maximum frequency
   DEG_THRESHOLD= 0.2000000E-02 threshold for treating states as degnerate
   RTIME   =   -0.100 relaxation time in fs
  (WPLASMAI=    0.000 imaginary part of plasma frequency in eV, 0.658/RTIME)
   DFIELD  = 0.0000000 0.0000000 0.0000000 field for delta impulse in time
 
  Optional k-point grid parameters
   LKPOINTS_OPT  =     F    use optional k-point grid
   KPOINTS_OPT_MODE=     1    mode for optional k-point grid
 
 Orbital magnetization related:
   ORBITALMAG=     F  switch on orbital magnetization
   LCHIMAG   =     F  perturbation theory with respect to B field
   DQ        =  0.001000  dq finite difference perturbation B field
   LLRAUG    =     F  two centre corrections for induced B field
   LBONE     =     F  B-component reconstruction in AE one-centre
   LVGVCALC  =     T  calculate vGv susceptibility
   LVGVAPPL  =     F  apply vGv susceptibility instead of pGv for G=0

 Random number generation:
   RANDOM_GENERATOR = DEFAULT
   PCG_SEED         = not used


--------------------------------------------------------------------------------------------------------


 conjugate gradient relaxation of ions
 charge density and potential will be updated during run
 spin polarized calculation
 Conjugate gradient for all bands (Freysoldt, et al. PRB 79, 241103 (2009))
 preconditioned conjugated gradient                                        
 perform sub-space diagonalisation
    before iterative eigenvector-optimisation
 modified Broyden-mixing scheme, WC =      100.0
 initial mixing is a Kerker type mixing with AMIX =  0.4000 and BMIX =      1.0000
 Hartree-type preconditioning will be used
 using additional bands           18
 reciprocal scheme for non local part
 use partial core corrections
 no Harris-corrections to forces 
 use gradient corrections 
 use of overlap-Matrix (Vanderbilt PP)
 Methfessel and Paxton  Order N= 1 SIGMA  =   0.20


--------------------------------------------------------------------------------------------------------


  energy-cutoff  :      520.00
  volume of cell :      139.00
      direct lattice vectors                 reciprocal lattice vectors
     3.583254790  0.000000016  0.000000002     0.279075885 -0.000000001 -0.000000001
     0.000000017  3.583254685  0.000000000    -0.000000001  0.279075893  0.000000001
     0.000000030 -0.000000025 10.825785874    -0.000000000 -0.000000000  0.092372047

  length of vectors
     3.583254790  3.583254685 10.825785874     0.279075885  0.279075893  0.092372047


 
 k-points in units of 2pi/SCALE and weight: pymatgen with grid density = 8800 / numb
   0.00000000  0.00000000  0.00000000       0.001
   0.02146738 -0.00000000 -0.00000000       0.003
  -0.00000000  0.02146738  0.00000000       0.003
   0.04293475 -0.00000000 -0.00000000       0.003
  -0.00000000  0.04293475  0.00000000       0.003
   0.06440213 -0.00000000 -0.00000000       0.003
  -0.00000000  0.06440213  0.00000000       0.003
   0.08586950 -0.00000000 -0.00000000       0.003
  -0.00000000  0.08586951  0.00000000       0.003
   0.10733688 -0.00000000 -0.00000000       0.003
  -0.00000000  0.10733688  0.00000000       0.003
   0.12880425 -0.00000000 -0.00000000       0.003
  -0.00000000  0.12880426  0.00000000       0.003
   0.02146738  0.02146738 -0.00000000       0.003
  -0.02146738  0.02146738  0.00000000       0.003
   0.04293475  0.02146738 -0.00000000       0.003
  -0.02146738  0.04293475  0.00000000       0.003
  -0.04293475  0.02146738  0.00000000       0.003
   0.02146738  0.04293475  0.00000000       0.003
   0.06440213  0.02146738 -0.00000000       0.003
  -0.02146738  0.06440213  0.00000000       0.003
  -0.06440213  0.02146738  0.00000000       0.003
   0.02146738  0.06440213  0.00000000       0.003
   0.08586950  0.02146738 -0.00000000       0.003
  -0.02146738  0.08586951  0.00000000       0.003
  -0.08586950  0.02146738  0.00000000       0.003
   0.02146738  0.08586951  0.00000000       0.003
   0.10733688  0.02146738 -0.00000000       0.003
  -0.02146738  0.10733688  0.00000000       0.003
  -0.10733688  0.02146738  0.00000000       0.003
   0.02146738  0.10733688  0.00000000       0.003
   0.12880425  0.02146738 -0.00000000       0.003
  -0.02146738  0.12880426  0.00000000       0.003
  -0.12880425  0.02146738  0.00000000       0.003
   0.02146738  0.12880426  0.00000000       0.003
   0.04293475  0.04293475 -0.00000000       0.003
  -0.04293475  0.04293475  0.00000000       0.003
   0.06440213  0.04293475 -0.00000000       0.003
  -0.04293475  0.06440213  0.00000000       0.003
  -0.06440213  0.04293475  0.00000000       0.003
   0.04293475  0.06440213  0.00000000       0.003
   0.08586950  0.04293475 -0.00000000       0.003
  -0.04293475  0.08586951  0.00000000       0.003
  -0.08586950  0.04293475  0.00000000       0.003
   0.04293475  0.08586951  0.00000000       0.003
   0.10733688  0.04293475 -0.00000000       0.003
  -0.04293475  0.10733688  0.00000000       0.003
  -0.10733688  0.04293475  0.00000000       0.003
   0.04293475  0.10733688  0.00000000       0.003
   0.12880425  0.04293475 -0.00000000       0.003
  -0.04293475  0.12880426  0.00000000       0.003
  -0.12880425  0.04293475  0.00000000       0.003
   0.04293475  0.12880426  0.00000000       0.003
   0.06440213  0.06440213 -0.00000000       0.003
  -0.06440213  0.06440213  0.00000000       0.003
   0.08586950  0.06440213 -0.00000000       0.003
  -0.06440213  0.08586951  0.00000000       0.003
  -0.08586950  0.06440213  0.00000000       0.003
   0.06440213  0.08586951  0.00000000       0.003
   0.10733688  0.06440213 -0.00000000       0.003
  -0.06440213  0.10733688  0.00000000       0.003
  -0.10733688  0.06440213  0.00000000       0.003
   0.06440213  0.10733688  0.00000000       0.003
   0.12880425  0.06440213 -0.00000000       0.003
  -0.06440213  0.12880426  0.00000000       0.003
  -0.12880425  0.06440213  0.00000000       0.003
   0.06440213  0.12880426  0.00000000       0.003
   0.08586950  0.08586951 -0.00000000       0.003
  -0.08586950  0.08586951  0.00000000       0.003
   0.10733688  0.08586950 -0.00000000       0.003
  -0.08586950  0.10733688  0.00000000       0.003
  -0.10733688  0.08586951  0.00000000       0.003
   0.08586950  0.10733688  0.00000000       0.003
   0.12880425  0.08586950 -0.00000000       0.003
  -0.08586950  0.12880426  0.00000000       0.003
  -0.12880425  0.08586951  0.00000000       0.003
   0.08586950  0.12880426  0.00000000       0.003
   0.10733688  0.10733688 -0.00000000       0.003
  -0.10733688  0.10733688  0.00000000       0.003
   0.12880425  0.10733688 -0.00000000       0.003
  -0.10733688  0.12880426  0.00000000       0.003
  -0.12880425  0.10733688  0.00000000       0.003
   0.10733688  0.12880426 -0.00000000       0.003
   0.12880425  0.12880426 -0.00000000       0.003
  -0.12880426  0.12880426  0.00000000       0.003
  -0.00000000 -0.00000000  0.02309301       0.003
   0.02146738 -0.00000000  0.02309301       0.003
  -0.00000000  0.02146738  0.02309301       0.003
  -0.02146738  0.00000000  0.02309301       0.003
   0.00000000 -0.02146738  0.02309301       0.003
   0.04293475 -0.00000000  0.02309301       0.003
  -0.00000000  0.04293475  0.02309301       0.003
  -0.04293475  0.00000000  0.02309301       0.003
   0.00000000 -0.04293475  0.02309301       0.003
   0.06440213 -0.00000000  0.02309301       0.003
  -0.00000000  0.06440213  0.02309301       0.003
  -0.06440213  0.00000000  0.02309301       0.003
   0.00000000 -0.06440213  0.02309301       0.003
   0.08586950 -0.00000000  0.02309301       0.003
  -0.00000000  0.08586951  0.02309301       0.003
  -0.08586950  0.00000000  0.02309301       0.003
   0.00000000 -0.08586951  0.02309301       0.003
   0.10733688 -0.00000000  0.02309301       0.003
  -0.00000000  0.10733688  0.02309301       0.003
  -0.10733688  0.00000000  0.02309301       0.003
   0.00000000 -0.10733688  0.02309301       0.003
   0.12880425 -0.00000000  0.02309301       0.003
  -0.00000000  0.12880426  0.02309301       0.003
  -0.12880425  0.00000000  0.02309301       0.003
   0.00000000 -0.12880426  0.02309301       0.003
   0.02146738  0.02146738  0.02309301       0.003
  -0.02146738  0.02146738  0.02309301       0.003
  -0.02146738 -0.02146738  0.02309301       0.003
   0.02146738 -0.02146738  0.02309301       0.003
   0.04293475  0.02146738  0.02309301       0.003
  -0.02146738  0.04293475  0.02309301       0.003
  -0.04293475 -0.02146738  0.02309301       0.003
   0.02146738 -0.04293475  0.02309301       0.003
  -0.04293475  0.02146738 -0.02309301       0.003
   0.02146738  0.04293475 -0.02309301       0.003
   0.04293475 -0.02146738 -0.02309301       0.003
  -0.02146738 -0.04293475 -0.02309301       0.003
   0.06440213  0.02146738  0.02309301       0.003
  -0.02146738  0.06440213  0.02309301       0.003
  -0.06440213 -0.02146738  0.02309301       0.003
   0.02146738 -0.06440213  0.02309301       0.003
  -0.06440213  0.02146738 -0.02309301       0.003
   0.02146738  0.06440213 -0.02309301       0.003
   0.06440213 -0.02146738 -0.02309301       0.003
  -0.02146738 -0.06440213 -0.02309301       0.003
   0.08586950  0.02146738  0.02309301       0.003
  -0.02146738  0.08586951  0.02309301       0.003
  -0.08586950 -0.02146738  0.02309301       0.003
   0.02146738 -0.08586951  0.02309301       0.003
  -0.08586950  0.02146738 -0.02309301       0.003
   0.02146738  0.08586951 -0.02309301       0.003
   0.08586950 -0.02146738 -0.02309301       0.003
  -0.02146738 -0.08586951 -0.02309301       0.003
   0.10733688  0.02146738  0.02309301       0.003
  -0.02146738  0.10733688  0.02309301       0.003
  -0.10733688 -0.02146738  0.02309301       0.003
   0.02146738 -0.10733688  0.02309301       0.003
  -0.10733688  0.02146738 -0.02309301       0.003
   0.02146738  0.10733688 -0.02309301       0.003
   0.10733688 -0.02146738 -0.02309301       0.003
  -0.02146738 -0.10733688 -0.02309301       0.003
   0.12880425  0.02146738  0.02309301       0.003
  -0.02146738  0.12880426  0.02309301       0.003
  -0.12880425 -0.02146738  0.02309301       0.003
   0.02146738 -0.12880426  0.02309301       0.003
  -0.12880425  0.02146738 -0.02309301       0.003
   0.02146738  0.12880426 -0.02309301       0.003
   0.12880425 -0.02146738 -0.02309301       0.003
  -0.02146738 -0.12880426 -0.02309301       0.003
   0.04293475  0.04293475  0.02309301       0.003
  -0.04293475  0.04293475  0.02309301       0.003
  -0.04293475 -0.04293475  0.02309301       0.003
   0.04293475 -0.04293475  0.02309301       0.003
   0.06440213  0.04293475  0.02309301       0.003
  -0.04293475  0.06440213  0.02309301       0.003
  -0.06440213 -0.04293475  0.02309301       0.003
   0.04293475 -0.06440213  0.02309301       0.003
  -0.06440213  0.04293475 -0.02309301       0.003
   0.04293475  0.06440213 -0.02309301       0.003
   0.06440213 -0.04293475 -0.02309301       0.003
  -0.04293475 -0.06440213 -0.02309301       0.003
   0.08586950  0.04293475  0.02309301       0.003
  -0.04293475  0.08586951  0.02309301       0.003
  -0.08586950 -0.04293475  0.02309301       0.003
   0.04293475 -0.08586951  0.02309301       0.003
  -0.08586950  0.04293475 -0.02309301       0.003
   0.04293475  0.08586951 -0.02309301       0.003
   0.08586950 -0.04293475 -0.02309301       0.003
  -0.04293475 -0.08586951 -0.02309301       0.003
   0.10733688  0.04293475  0.02309301       0.003
  -0.04293475  0.10733688  0.02309301       0.003
  -0.10733688 -0.04293475  0.02309301       0.003
   0.04293475 -0.10733688  0.02309301       0.003
  -0.10733688  0.04293475 -0.02309301       0.003
   0.04293475  0.10733688 -0.02309301       0.003
   0.10733688 -0.04293475 -0.02309301       0.003
  -0.04293475 -0.10733688 -0.02309301       0.003
   0.12880425  0.04293475  0.02309301       0.003
  -0.04293475  0.12880426  0.02309301       0.003
  -0.12880425 -0.04293475  0.02309301       0.003
   0.04293475 -0.12880426  0.02309301       0.003
  -0.12880425  0.04293475 -0.02309301       0.003
   0.04293475  0.12880426 -0.02309301       0.003
   0.12880425 -0.04293475 -0.02309301       0.003
  -0.04293475 -0.12880426 -0.02309301       0.003
   0.06440213  0.06440213  0.02309301       0.003
  -0.06440213  0.06440213  0.02309301       0.003
  -0.06440213 -0.06440213  0.02309301       0.003
   0.06440213 -0.06440213  0.02309301       0.003
   0.08586950  0.06440213  0.02309301       0.003
  -0.06440213  0.08586951  0.02309301       0.003
  -0.08586950 -0.06440213  0.02309301       0.003
   0.06440213 -0.08586951  0.02309301       0.003
  -0.08586950  0.06440213 -0.02309301       0.003
   0.06440213  0.08586951 -0.02309301       0.003
   0.08586950 -0.06440213 -0.02309301       0.003
  -0.06440213 -0.08586951 -0.02309301       0.003
   0.10733688  0.06440213  0.02309301       0.003
  -0.06440213  0.10733688  0.02309301       0.003
  -0.10733688 -0.06440213  0.02309301       0.003
   0.06440213 -0.10733688  0.02309301       0.003
  -0.10733688  0.06440213 -0.02309301       0.003
   0.06440213  0.10733688 -0.02309301       0.003
   0.10733688 -0.06440213 -0.02309301       0.003
  -0.06440213 -0.10733688 -0.02309301       0.003
   0.12880425  0.06440213  0.02309301       0.003
  -0.06440213  0.12880426  0.02309301       0.003
  -0.12880425 -0.06440213  0.02309301       0.003
   0.06440213 -0.12880426  0.02309301       0.003
  -0.12880425  0.06440213 -0.02309301       0.003
   0.06440213  0.12880426 -0.02309301       0.003
   0.12880425 -0.06440213 -0.02309301       0.003
  -0.06440213 -0.12880426 -0.02309301       0.003
   0.08586950  0.08586951  0.02309301       0.003
  -0.08586950  0.08586951  0.02309301       0.003
  -0.08586950 -0.08586951  0.02309301       0.003
   0.08586950 -0.08586951  0.02309301       0.003
   0.10733688  0.08586950  0.02309301       0.003
  -0.08586950  0.10733688  0.02309301       0.003
  -0.10733688 -0.08586950  0.02309301       0.003
   0.08586950 -0.10733688  0.02309301       0.003
  -0.10733688  0.08586951 -0.02309301       0.003
   0.08586950  0.10733688 -0.02309301       0.003
   0.10733688 -0.08586951 -0.02309301       0.003
  -0.08586950 -0.10733688 -0.02309301       0.003
   0.12880425  0.08586950  0.02309301       0.003
  -0.08586950  0.12880426  0.02309301       0.003
  -0.12880425 -0.08586950  0.02309301       0.003
   0.08586950 -0.12880426  0.02309301       0.003
  -0.12880425  0.08586951 -0.02309301       0.003
   0.08586950  0.12880426 -0.02309301       0.003
   0.12880425 -0.08586951 -0.02309301       0.003
  -0.08586950 -0.12880426 -0.02309301       0.003
   0.10733688  0.10733688  0.02309301       0.003
  -0.10733688  0.10733688  0.02309301       0.003
  -0.10733688 -0.10733688  0.02309301       0.003
   0.10733688 -0.10733688  0.02309301       0.003
   0.12880425  0.10733688  0.02309301       0.003
  -0.10733688  0.12880426  0.02309301       0.003
  -0.12880425 -0.10733688  0.02309301       0.003
   0.10733688 -0.12880426  0.02309301       0.003
  -0.12880425  0.10733688 -0.02309301       0.003
   0.10733688  0.12880426 -0.02309301       0.003
   0.12880425 -0.10733688 -0.02309301       0.003
  -0.10733688 -0.12880426 -0.02309301       0.003
   0.12880425  0.12880426  0.02309301       0.003
  -0.12880426  0.12880426  0.02309301       0.003
  -0.12880425 -0.12880426  0.02309301       0.003
   0.12880425 -0.12880426  0.02309301       0.003
  -0.00000000 -0.00000000  0.04618602       0.001
   0.02146738 -0.00000000  0.04618602       0.003
  -0.00000000  0.02146738  0.04618602       0.003
   0.04293475 -0.00000000  0.04618602       0.003
  -0.00000000  0.04293475  0.04618602       0.003
   0.06440213 -0.00000000  0.04618602       0.003
  -0.00000000  0.06440213  0.04618602       0.003
   0.08586950 -0.00000000  0.04618602       0.003
  -0.00000000  0.08586951  0.04618602       0.003
   0.10733688 -0.00000000  0.04618602       0.003
  -0.00000000  0.10733688  0.04618602       0.003
   0.12880425 -0.00000000  0.04618602       0.003
  -0.00000000  0.12880426  0.04618602       0.003
   0.02146738  0.02146738  0.04618602       0.003
  -0.02146738  0.02146738  0.04618602       0.003
   0.04293475  0.02146738  0.04618602       0.003
  -0.02146738  0.04293475  0.04618602       0.003
  -0.04293475  0.02146738  0.04618602       0.003
   0.02146738  0.04293475  0.04618602       0.003
   0.06440213  0.02146738  0.04618602       0.003
  -0.02146738  0.06440213  0.04618602       0.003
  -0.06440213  0.02146738  0.04618602       0.003
   0.02146738  0.06440213  0.04618602       0.003
   0.08586950  0.02146738  0.04618602       0.003
  -0.02146738  0.08586951  0.04618602       0.003
  -0.08586950  0.02146738  0.04618602       0.003
   0.02146738  0.08586951  0.04618602       0.003
   0.10733688  0.02146738  0.04618602       0.003
  -0.02146738  0.10733688  0.04618602       0.003
  -0.10733688  0.02146738  0.04618602       0.003
   0.02146738  0.10733688  0.04618602       0.003
   0.12880425  0.02146738  0.04618602       0.003
  -0.02146738  0.12880426  0.04618602       0.003
  -0.12880425  0.02146738  0.04618602       0.003
   0.02146738  0.12880426  0.04618602       0.003
   0.04293475  0.04293475  0.04618602       0.003
  -0.04293475  0.04293475  0.04618602       0.003
   0.06440213  0.04293475  0.04618602       0.003
  -0.04293475  0.06440213  0.04618602       0.003
  -0.06440213  0.04293475  0.04618602       0.003
   0.04293475  0.06440213  0.04618602       0.003
   0.08586950  0.04293475  0.04618602       0.003
  -0.04293475  0.08586951  0.04618602       0.003
  -0.08586950  0.04293475  0.04618602       0.003
   0.04293475  0.08586951  0.04618602       0.003
   0.10733688  0.04293475  0.04618602       0.003
  -0.04293475  0.10733688  0.04618602       0.003
  -0.10733688  0.04293475  0.04618602       0.003
   0.04293475  0.10733688  0.04618602       0.003
   0.12880425  0.04293475  0.04618602       0.003
  -0.04293475  0.12880426  0.04618602       0.003
  -0.12880425  0.04293475  0.04618602       0.003
   0.04293475  0.12880426  0.04618602       0.003
   0.06440213  0.06440213  0.04618602       0.003
  -0.06440213  0.06440213  0.04618602       0.003
   0.08586950  0.06440213  0.04618602       0.003
  -0.06440213  0.08586951  0.04618602       0.003
  -0.08586950  0.06440213  0.04618602       0.003
   0.06440213  0.08586951  0.04618602       0.003
   0.10733688  0.06440213  0.04618602       0.003
  -0.06440213  0.10733688  0.04618602       0.003
  -0.10733688  0.06440213  0.04618602       0.003
   0.06440213  0.10733688  0.04618602       0.003
   0.12880425  0.06440213  0.04618602       0.003
  -0.06440213  0.12880426  0.04618602       0.003
  -0.12880425  0.06440213  0.04618602       0.003
   0.06440213  0.12880426  0.04618602       0.003
   0.08586950  0.08586951  0.04618602       0.003
  -0.08586950  0.08586951  0.04618602       0.003
   0.10733688  0.08586950  0.04618602       0.003
  -0.08586950  0.10733688  0.04618602       0.003
  -0.10733688  0.08586951  0.04618602       0.003
   0.08586950  0.10733688  0.04618602       0.003
   0.12880425  0.08586950  0.04618602       0.003
  -0.08586950  0.12880426  0.04618602       0.003
  -0.12880425  0.08586951  0.04618602       0.003
   0.08586950  0.12880426  0.04618602       0.003
   0.10733688  0.10733688  0.04618602       0.003
  -0.10733688  0.10733688  0.04618602       0.003
   0.12880425  0.10733688  0.04618602       0.003
  -0.10733688  0.12880426  0.04618602       0.003
  -0.12880425  0.10733688  0.04618602       0.003
   0.10733688  0.12880426  0.04618602       0.003
   0.12880425  0.12880426  0.04618602       0.003
  -0.12880426  0.12880426  0.04618602       0.003
 
 k-points in reciprocal lattice and weights: pymatgen with grid density = 8800 / numb
   0.00000000  0.00000000  0.00000000       0.001
   0.07692308  0.00000000  0.00000000       0.003
  -0.00000000  0.07692308  0.00000000       0.003
   0.15384615  0.00000000  0.00000000       0.003
   0.00000000  0.15384615  0.00000000       0.003
   0.23076923  0.00000000  0.00000000       0.003
   0.00000000  0.23076923  0.00000000       0.003
   0.30769231  0.00000000  0.00000000       0.003
  -0.00000000  0.30769231  0.00000000       0.003
   0.38461538  0.00000000  0.00000000       0.003
   0.00000000  0.38461538  0.00000000       0.003
   0.46153846  0.00000000  0.00000000       0.003
   0.00000000  0.46153846  0.00000000       0.003
   0.07692308  0.07692308  0.00000000       0.003
  -0.07692308  0.07692308  0.00000000       0.003
   0.15384615  0.07692308  0.00000000       0.003
  -0.07692308  0.15384615  0.00000000       0.003
  -0.15384615  0.07692308  0.00000000       0.003
   0.07692308  0.15384615  0.00000000       0.003
   0.23076923  0.07692308  0.00000000       0.003
  -0.07692308  0.23076923  0.00000000       0.003
  -0.23076923  0.07692308  0.00000000       0.003
   0.07692308  0.23076923  0.00000000       0.003
   0.30769231  0.07692308  0.00000000       0.003
  -0.07692308  0.30769231  0.00000000       0.003
  -0.30769231  0.07692308  0.00000000       0.003
   0.07692308  0.30769231 -0.00000000       0.003
   0.38461538  0.07692308  0.00000000       0.003
  -0.07692308  0.38461538  0.00000000       0.003
  -0.38461538  0.07692308  0.00000000       0.003
   0.07692308  0.38461538  0.00000000       0.003
   0.46153846  0.07692308  0.00000000       0.003
  -0.07692308  0.46153846  0.00000000       0.003
  -0.46153846  0.07692308  0.00000000       0.003
   0.07692308  0.46153846  0.00000000       0.003
   0.15384615  0.15384615  0.00000000       0.003
  -0.15384615  0.15384615  0.00000000       0.003
   0.23076923  0.15384615  0.00000000       0.003
  -0.15384615  0.23076923  0.00000000       0.003
  -0.23076923  0.15384615  0.00000000       0.003
   0.15384615  0.23076923  0.00000000       0.003
   0.30769231  0.15384615  0.00000000       0.003
  -0.15384615  0.30769231  0.00000000       0.003
  -0.30769231  0.15384615  0.00000000       0.003
   0.15384615  0.30769231 -0.00000000       0.003
   0.38461538  0.15384615  0.00000000       0.003
  -0.15384615  0.38461538  0.00000000       0.003
  -0.38461538  0.15384615  0.00000000       0.003
   0.15384615  0.38461538 -0.00000000       0.003
   0.46153846  0.15384615  0.00000000       0.003
  -0.15384615  0.46153846  0.00000000       0.003
  -0.46153846  0.15384615  0.00000000       0.003
   0.15384615  0.46153846  0.00000000       0.003
   0.23076923  0.23076923  0.00000000       0.003
  -0.23076923  0.23076923  0.00000000       0.003
   0.30769231  0.23076923  0.00000000       0.003
  -0.23076923  0.30769231  0.00000000       0.003
  -0.30769231  0.23076923  0.00000000       0.003
   0.23076923  0.30769231 -0.00000000       0.003
   0.38461538  0.23076923  0.00000000       0.003
  -0.23076923  0.38461538  0.00000000       0.003
  -0.38461538  0.23076923  0.00000000       0.003
   0.23076923  0.38461538 -0.00000000       0.003
   0.46153846  0.23076923  0.00000000       0.003
  -0.23076923  0.46153846  0.00000000       0.003
[...]
     29       5.0301      1.00000
     30       5.0414      1.00000
     31       5.2319      1.00000
     32       5.4951      1.00000
     33       5.5529      1.00000
     34       5.7362      1.00000
     35       5.9086      1.00000
     36       5.9266      1.00000
     37       6.1307      1.00000
     38       6.2270      1.00000
     39       6.2283      1.00000
     40       6.8119      1.00000
     41       7.2406      1.00000
     42       7.7839      1.00000
     43       7.8054      1.00000
     44       8.0362      1.00000
     45       8.0907      1.00000
     46       8.2653      1.00000
     47       8.3272      1.00000
     48       8.3492      1.00000
     49       8.4301      1.00000
     50       8.5360      1.00000
     51       8.5856      1.00000
     52       8.6653      1.00000
     53       8.7697      1.00000
     54       8.8662      1.00000
     55       8.8771      1.00000
     56       8.8851      1.00000
     57       8.9541      1.00000
     58       9.1190      1.00000
     59       9.2269      1.00000
     60       9.7366      1.00000
     61       9.7893      1.00000
     62       9.7937      1.00000
     63       9.8758      1.00000
     64       9.9926      1.00000
     65      10.1978      1.00000
     66      10.2132      1.00000
     67      10.2997      1.00000
     68      10.3652      1.00000
     69      10.4326      1.00000
     70      10.4517      1.00000
     71      10.5348      1.00000
     72      10.6779      1.00000
     73      10.8255      1.00001
     74      10.9349      1.00037
     75      10.9414      1.00043
     76      11.1344      1.01658
     77      11.2249      1.03474
     78      11.3551      0.94013
     79      11.3883      0.85828
     80      11.8925     -0.00691
     81      11.9897     -0.00019
     82      12.0337     -0.00014
     83      12.0573     -0.00010
     84      12.0678     -0.00001
     85      12.2583     -0.00000
     86      12.3211     -0.00000
     87      12.3829     -0.00000
     88      12.8895     -0.00000
     89      12.8905     -0.00000
     90      13.0169     -0.00000
     91      13.1052     -0.00000
     92      13.1175     -0.00000
     93      13.4493     -0.00000
     94      13.7977     -0.00000
     95      13.9004     -0.00000
     96      14.1976     -0.00000


--------------------------------------------------------------------------------------------------------


 soft charge-density along one line, spin component           1
         0         1         2         3         4         5         6         7         8         9
 total charge-density along one line
 
 soft charge-density along one line, spin component           2
         0         1         2         3         4         5         6         7         8         9
 total charge-density along one line
 
 pseudopotential strength for first ion, spin component:           1
-41.693  -0.000   0.000   6.243   0.000  -0.000   0.000   0.000
 -0.000 -41.682  -0.000   0.000   6.238   0.000   0.000  -0.000
  0.000  -0.000 -41.633  -0.000   0.000   6.218  -0.000   0.000
  6.243   0.000  -0.000   5.986  -0.000   0.000  -0.000   0.000
  0.000   6.238   0.000  -0.000   5.987  -0.000  -0.000   0.000
 -0.000   0.000   6.218   0.000  -0.000   5.990   0.000  -0.000
  0.000   0.000  -0.000  -0.000  -0.000   0.000   0.549  -0.000
  0.000  -0.000   0.000   0.000   0.000  -0.000  -0.000   0.582
  0.000  -0.000  -0.000  -0.000   0.000   0.000  -0.000  -0.000
  0.000   0.000  -0.000  -0.000  -0.000   0.000  -0.000   0.000
  0.000  -0.000   0.000  -0.000   0.000  -0.000   0.000  -0.000
  0.000   0.000  -0.000  -0.000  -0.000   0.000  -0.007  -0.000
  0.000  -0.000   0.000   0.000   0.000  -0.000  -0.000   0.026
  0.000  -0.000  -0.000  -0.000   0.000   0.000  -0.000  -0.000
  0.000   0.000  -0.000  -0.000  -0.000   0.000  -0.000   0.000
  0.000  -0.000   0.000  -0.000   0.000  -0.000   0.000  -0.000
  0.000   0.000  -0.000  -0.000   0.000  -0.000  -0.000   0.000
  0.000   0.000  -0.000   0.000   0.000  -0.000  -0.000   0.000
 pseudopotential strength for first ion, spin component:           2
-43.642  -0.000   0.000   7.065   0.000  -0.000   0.000   0.000
 -0.000 -43.631  -0.000   0.000   7.060   0.000  -0.000  -0.000
  0.000  -0.000 -43.510  -0.000   0.000   7.012  -0.000  -0.000
  7.065   0.000  -0.000   5.760  -0.000   0.000  -0.000  -0.000
  0.000   7.060   0.000  -0.000   5.761  -0.000   0.000   0.000
 -0.000   0.000   7.012   0.000  -0.000   5.769   0.000   0.000
  0.000  -0.000  -0.000  -0.000   0.000   0.000  -0.930   0.000
  0.000  -0.000  -0.000  -0.000   0.000   0.000   0.000  -1.087
  0.000  -0.000   0.000  -0.000  -0.000  -0.000  -0.000  -0.000
 -0.000   0.000  -0.000   0.000  -0.000  -0.000  -0.000   0.000
  0.000  -0.000   0.000  -0.000   0.000  -0.000  -0.000   0.000
  0.000  -0.000  -0.000  -0.000   0.000   0.000  -1.462   0.000
  0.000  -0.000  -0.000  -0.000   0.000   0.000   0.000  -1.616
  0.000  -0.000   0.000  -0.000  -0.000  -0.000  -0.000  -0.000
 -0.000   0.000  -0.000   0.000  -0.000  -0.000  -0.000   0.000
  0.000  -0.000   0.000  -0.000   0.000  -0.000  -0.000   0.000
  0.000  -0.000  -0.000   0.000   0.000  -0.000  -0.000   0.000
  0.000  -0.000  -0.000   0.000   0.000  -0.000  -0.000   0.000
 total augmentation occupancy for first ion, spin component:           1
  1.992  -0.000   0.000  -0.023  -0.000   0.000   0.000   0.000   0.000   0.000   0.000  -0.000  -0.000  -0.000  -0.000  -0.000
 -0.000   1.992  -0.000  -0.000  -0.023  -0.000   0.000   0.000   0.000  -0.000  -0.000  -0.000  -0.000  -0.000   0.000   0.000
  0.000  -0.000   1.992   0.000  -0.000  -0.023  -0.000  -0.000   0.000   0.000  -0.000   0.000   0.000  -0.000  -0.000   0.000
 -0.023  -0.000   0.000   0.211  -0.000  -0.000   0.000   0.000   0.000  -0.000  -0.000  -0.000  -0.000  -0.000   0.000   0.000
 -0.000  -0.023  -0.000  -0.000   0.212   0.000   0.000   0.000   0.000   0.000  -0.000  -0.000  -0.000  -0.000  -0.000   0.000
  0.000  -0.000  -0.023  -0.000   0.000   0.199  -0.000  -0.000  -0.000   0.000  -0.000   0.000   0.000  -0.000  -0.000   0.000
  0.000   0.000  -0.000   0.000   0.000  -0.000   2.539  -0.000  -0.000  -0.000   0.000  -1.570   0.000   0.000   0.000  -0.000
  0.000   0.000  -0.000   0.000   0.000  -0.000  -0.000   3.179  -0.000  -0.000  -0.000   0.000  -2.452   0.000   0.000  -0.000
  0.000   0.000   0.000   0.000   0.000  -0.000  -0.000  -0.000   3.296   0.000   0.204   0.000   0.000  -2.084  -0.000  -0.077
  0.000  -0.000   0.000  -0.000   0.000   0.000  -0.000  -0.000   0.000   2.806   0.000   0.000   0.000  -0.000  -1.749  -0.000
  0.000  -0.000  -0.000  -0.000  -0.000  -0.000   0.000  -0.000   0.204   0.000   3.287  -0.000  -0.000  -0.078  -0.000  -2.114
 -0.000  -0.000   0.000  -0.000  -0.000   0.000  -1.570   0.000   0.000   0.000  -0.000   1.992  -0.000  -0.000  -0.000   0.000
 -0.000  -0.000   0.000  -0.000  -0.000   0.000   0.000  -2.452   0.000   0.000  -0.000  -0.000   2.961  -0.000  -0.000   0.000
 -0.000  -0.000  -0.000  -0.000  -0.000  -0.000   0.000   0.000  -2.084  -0.000  -0.078  -0.000  -0.000   2.185  -0.000   0.001
 -0.000   0.000  -0.000   0.000  -0.000  -0.000   0.000   0.000  -0.000  -1.749  -0.000  -0.000  -0.000  -0.000   2.139   0.000
 -0.000   0.000   0.000   0.000   0.000   0.000  -0.000  -0.000  -0.077  -0.000  -2.114   0.000   0.000   0.001   0.000   2.239
  0.000   0.000  -0.000  -0.000  -0.000  -0.000   0.000   0.000  -0.098   0.000   0.181  -0.000  -0.000   0.081  -0.000  -0.125
 -0.000  -0.000   0.000   0.000   0.000   0.000  -0.000   0.000   0.010   0.000  -0.016   0.000   0.000  -0.008  -0.000   0.010
 total augmentation occupancy for first ion, spin component:           2
  0.002  -0.000   0.000   0.007  -0.000   0.000   0.000   0.000   0.000  -0.000   0.000  -0.000  -0.000  -0.000   0.000  -0.000
 -0.000   0.002   0.000  -0.000   0.008  -0.000  -0.000  -0.000   0.000   0.000  -0.000   0.000   0.000  -0.000  -0.000   0.000
  0.000   0.000   0.002   0.000   0.000   0.008  -0.000  -0.000   0.000   0.000  -0.000   0.000   0.000  -0.000  -0.000   0.000
  0.007  -0.000   0.000  -0.002  -0.000  -0.000   0.000  -0.000  -0.000   0.000  -0.000  -0.000  -0.000   0.000  -0.000   0.000
 -0.000   0.008   0.000  -0.000   0.008   0.000   0.000   0.000  -0.000   0.000  -0.000  -0.000  -0.000   0.000  -0.000   0.000
  0.000  -0.000   0.008  -0.000   0.000   0.005  -0.000   0.000  -0.000  -0.000  -0.000   0.000  -0.000   0.000   0.000   0.000
  0.000  -0.000  -0.000   0.000   0.000  -0.000  -1.753   0.000   0.000   0.000  -0.000   0.715  -0.000  -0.000  -0.000   0.000
  0.000  -0.000  -0.000  -0.000   0.000   0.000   0.000  -1.892  -0.000   0.000   0.000  -0.000   0.590   0.000  -0.000  -0.000
  0.000   0.000   0.000  -0.000  -0.000  -0.000   0.000  -0.000  -2.300  -0.000  -0.079  -0.000   0.000   0.947   0.000   0.120
 -0.000   0.000   0.000   0.000   0.000  -0.000   0.000   0.000  -0.000  -1.946   0.000  -0.000  -0.000   0.000   0.831  -0.000
  0.000  -0.000  -0.000  -0.000  -0.000  -0.000  -0.000   0.000  -0.079   0.000  -2.376   0.000  -0.000   0.119  -0.000   0.942
 -0.000   0.000   0.000  -0.000  -0.000   0.000   0.715  -0.000  -0.000  -0.000   0.000  -0.085   0.000   0.000   0.000  -0.000
 -0.000   0.000   0.000  -0.000  -0.000  -0.000  -0.000   0.590   0.000  -0.000  -0.000   0.000   0.127  -0.000   0.000   0.000
 -0.000  -0.000  -0.000   0.000   0.000   0.000  -0.000   0.000   0.947   0.000   0.119   0.000  -0.000  -0.226  -0.000  -0.134
  0.000  -0.000  -0.000  -0.000  -0.000   0.000  -0.000  -0.000   0.000   0.831  -0.000   0.000   0.000  -0.000  -0.127   0.000
 -0.000   0.000   0.000   0.000   0.000   0.000   0.000  -0.000   0.120  -0.000   0.942  -0.000   0.000  -0.134   0.000  -0.170
 -0.000  -0.000   0.000  -0.000  -0.000   0.000  -0.000  -0.000  -0.023   0.000  -0.025   0.000   0.000   0.013  -0.000   0.043
  0.000  -0.000  -0.000   0.000   0.000  -0.000   0.000  -0.000  -0.004  -0.000   0.007  -0.000   0.000   0.001  -0.000  -0.002


------------------------ aborting loop because EDIFF is reached ----------------------------------------





 total charge

# of ion       s       p       d       tot
------------------------------------------
    1        0.380   6.391   6.126  12.896
    2        0.383   6.399   6.112  12.895
    3        0.383   6.399   6.113  12.895
    4        0.386   6.403   6.095  12.884
    5        0.386   6.403   6.095  12.884
    6        0.382   6.396   6.121  12.899
    7        0.380   6.391   6.126  12.896
    8        0.383   6.399   6.112  12.895
    9        0.383   6.399   6.113  12.895
   10        0.833   0.840   8.076   9.748
   11        0.833   0.839   8.075   9.747
   12        0.822   0.852   8.074   9.747
--------------------------------------------------
tot          5.931  60.111  79.239 145.281



 magnetization (x)

# of ion       s       p       d       tot
------------------------------------------
    1       -0.004   0.009  -2.250  -2.244
    2        0.007   0.005   2.106   2.118
    3        0.007   0.005   2.104   2.116
    4       -0.013  -0.024  -2.190  -2.227
    5       -0.013  -0.024  -2.192  -2.228
    6        0.001  -0.016   2.257   2.242
    7       -0.004   0.009  -2.250  -2.244
    8        0.007   0.005   2.106   2.118
    9        0.007   0.005   2.104   2.116
   10        0.009   0.022  -0.111  -0.081
   11        0.009   0.022  -0.111  -0.081
   12       -0.032  -0.082   0.282   0.168
--------------------------------------------------
tot         -0.017  -0.065   1.855   1.773
 
    FORLOC:  cpu time      0.0015: real time      0.0016
    FORNL :  cpu time      1.9627: real time      1.9723
    STRESS:  cpu time     14.3550: real time     14.4800
    FORCOR:  cpu time      0.0207: real time      0.0208
    OFIELD:  cpu time      0.0003: real time      0.0003

  FORCE on cell =-STRESS in cart. coord.  units (eV):
  Direction    XX          YY          ZZ          XY          YZ          ZX
  --------------------------------------------------------------------------------------
  Alpha Z  1224.38942  1224.38942  1224.38942
  Ewald   -6264.13832 -6264.13829 -6272.99031    -0.00004     0.00001    -0.00001
  Hartree  1770.43281  1770.43444  1760.52513    -0.00002    -0.00000     0.00000
  E(xc)    -946.50489  -946.50489  -946.45539     0.00000     0.00000    -0.00000
  Local    1277.87549  1277.87415  1302.99042     0.00006    -0.00000     0.00000
  n-local  -198.89840  -198.89825  -198.04797    -0.00000    -0.00000     0.00000
  augment  1436.32259  1436.32257  1431.60751    -0.00000    -0.00000     0.00000
  Kinetic  1717.73768  1717.73763  1715.21052    -0.00000    -0.00000     0.00001
  Fock        0.00000     0.00000     0.00000     0.00000     0.00000     0.00000
  -------------------------------------------------------------------------------------
  Total      17.21637    17.21677    17.22934    -0.00001    -0.00001     0.00000
  in kB     198.44378   198.44831   198.59317    -0.00007    -0.00006     0.00004
  external pressure =      198.50 kB  Pullay stress =        0.00 kB


 VOLUME and BASIS-vectors are now :
 -----------------------------------------------------------------------------
  energy-cutoff  :      520.00
  volume of cell :      139.00
      direct lattice vectors                 reciprocal lattice vectors
     3.583254790  0.000000016  0.000000002     0.279075885 -0.000000001 -0.000000001
     0.000000017  3.583254685  0.000000000    -0.000000001  0.279075893  0.000000001
     0.000000030 -0.000000025 10.825785874    -0.000000000 -0.000000000  0.092372047

  length of vectors
     3.583254790  3.583254685 10.825785874     0.279075885  0.279075893  0.092372047


 FORCES acting on ions:
    Electron-Ion                     Ewald-Force                    Non-Local-Force
 -----------------------------------------------------------------------------------------------
   -.313E-04 0.487E-05 -.810E+00   0.319E-04 -.105E-04 0.811E+00   -.118E-05 0.297E-05 0.327E-02
   0.452E-04 -.341E-04 -.714E+01   -.362E-04 0.362E-04 0.826E+01   -.270E-05 -.869E-06 -.111E+01
   0.399E-04 -.196E-04 0.795E+01   -.462E-04 0.224E-04 -.907E+01   -.133E-05 0.175E-05 0.111E+01
   -.608E-04 -.531E-04 0.126E+02   0.623E-04 0.509E-04 -.113E+02   -.222E-06 0.468E-06 -.128E+01
   0.633E-04 0.296E-04 -.133E+02   -.689E-04 -.397E-04 0.120E+02   0.574E-06 -.144E-05 0.129E+01
   -.138E-04 -.286E-04 0.730E+00   0.199E-04 0.299E-04 -.725E+00   -.495E-06 0.784E-07 -.584E-02
   0.103E-04 -.730E-05 -.810E+00   -.100E-04 0.125E-04 0.811E+00   -.480E-06 -.160E-05 0.326E-02
   -.188E-04 0.247E-04 -.714E+01   0.961E-05 -.266E-04 0.826E+01   0.222E-05 -.487E-06 -.111E+01
   -.252E-04 0.701E-04 0.795E+01   0.334E-04 -.725E-04 -.907E+01   0.204E-06 -.782E-06 0.111E+01
   0.508E-04 -.319E-05 -.938E+01   -.518E-04 0.414E-05 0.939E+01   -.621E-06 0.151E-06 0.311E-01
   -.538E-04 0.717E-06 0.896E+01   0.564E-04 0.251E-05 -.898E+01   0.173E-06 -.374E-05 -.295E-01
   -.574E-06 0.827E-05 0.420E+00   -.375E-06 -.914E-05 -.417E+00   0.125E-05 0.139E-05 -.179E-02
 -----------------------------------------------------------------------------------------------
   0.531E-05 -.769E-05 -.399E-03   -.493E-13 -.231E-13 -.467E-12   -.261E-05 -.211E-05 0.337E-03
 
 
 POSITION                                       TOTAL-FORCE (eV/Angst)
 -----------------------------------------------------------------------------------
      3.58325      1.79163      1.80399        -0.000001     -0.000002      0.004255
      0.00000      1.79163      5.40948         0.000006      0.000002      0.000560
      0.00000      1.79163      9.02522        -0.000008      0.000005     -0.005045
      1.79163      1.79163      0.01553         0.000001     -0.000001      0.005808
      1.79163      1.79163      3.59274        -0.000005     -0.000011     -0.004331
      1.79163      1.79163      7.21752         0.000005      0.000002     -0.001479
      1.79163      3.58325      1.80399        -0.000000      0.000004      0.004244
      1.79163      0.00000      5.40948        -0.000007     -0.000002      0.000509
      1.79163      0.00000      9.02522         0.000008     -0.000002     -0.004983
      0.00000      3.58325     10.80403        -0.000002      0.000002     -0.005597
      3.58325      0.00000      3.63021         0.000002      0.000000      0.005115
      3.58325      3.58325      7.21732         0.000000      0.000001      0.000945
 -----------------------------------------------------------------------------------
    total drift:                                0.000003     -0.000010     -0.000062


--------------------------------------------------------------------------------------------------------



  FREE ENERGIE OF THE ION-ELECTRON SYSTEM (eV)
  ---------------------------------------------------
  free  energy   TOTEN  =       -92.56307812 eV

  energy  without entropy=      -92.57398155  energy(sigma->0) =      -92.56671259
 


--------------------------------------------------------------------------------------------------------


    POTLOK:  cpu time      0.1650: real time      0.1658


--------------------------------------------------------------------------------------------------------




--------------------------------------------------------------------------------------------------------


  
 reached required accuracy - stopping structural energy minimisation
     LOOP+:  cpu time    707.1033: real time    714.5119
    4ORBIT:  cpu time      0.0000: real time      0.0000



 total charge

# of ion       s       p       d       tot
------------------------------------------
    1        0.380   6.391   6.126  12.896
    2        0.383   6.399   6.112  12.895
    3        0.383   6.399   6.113  12.895
    4        0.386   6.403   6.095  12.884
    5        0.386   6.403   6.095  12.884
    6        0.382   6.396   6.121  12.899
    7        0.380   6.391   6.126  12.896
    8        0.383   6.399   6.112  12.895
    9        0.383   6.399   6.113  12.895
   10        0.833   0.840   8.076   9.748
   11        0.833   0.839   8.075   9.747
   12        0.822   0.852   8.074   9.747
--------------------------------------------------
tot          5.931  60.111  79.239 145.281



 magnetization (x)

# of ion       s       p       d       tot
------------------------------------------
    1       -0.004   0.009  -2.250  -2.244
    2        0.007   0.005   2.106   2.118
    3        0.007   0.005   2.104   2.116
    4       -0.013  -0.024  -2.190  -2.227
    5       -0.013  -0.024  -2.192  -2.228
    6        0.001  -0.016   2.257   2.242
    7       -0.004   0.009  -2.250  -2.244
    8        0.007   0.005   2.106   2.118
    9        0.007   0.005   2.104   2.116
   10        0.009   0.022  -0.111  -0.081
   11        0.009   0.022  -0.111  -0.081
   12       -0.032  -0.082   0.282   0.168
--------------------------------------------------
tot         -0.017  -0.065   1.855   1.773
 

 total amount of memory used by VASP MPI-rank0   797985. kBytes
=======================================================================

   base      :      30000. kBytes
   nonl-proj :     369383. kBytes
   fftplans  :        888. kBytes
   grid      :       6813. kBytes
   one-center:        373. kBytes
   wavefun   :     390528. kBytes
 
  
  
 General timing and accounting informations for this job:
 ========================================================
  
                  Total CPU time used (sec):      747.184
                            User time (sec):      738.138
                          System time (sec):        9.046
                         Elapsed time (sec):      761.661
  
                   Maximum memory used (kb):     1856672.
                   Average memory used (kb):          N/A
  
                          Minor page faults:       227881
                          Major page faults:          210
                 Voluntary context switches:        10121
