       N       E                     dE             d eps       ncg     rms          rms(c)
DAV:   1     0.177240867226E+04    0.17724E+04   -0.84356E+04 43008   0.180E+03
DAV:   2     0.640971981181E+01   -0.17660E+04   -0.16741E+04 43008   0.481E+02
DAV:   3    -0.102565888887E+03   -0.10898E+03   -0.10727E+03 50848   0.127E+02
DAV:   4    -0.104164066558E+03   -0.15982E+01   -0.15977E+01 45632   0.155E+01
DAV:   5    -0.104195131144E+03   -0.31065E-01   -0.31064E-01 52928   0.209E+00    0.380E+01
DAV:   6    -0.101045073228E+03    0.31501E+01   -0.64364E+01 48640   0.512E+01    0.357E+01
DAV:   7    -0.956838876916E+02    0.53612E+01   -0.81880E+01 49536   0.394E+01    0.204E+01
DAV:   8    -0.947696881227E+02    0.91420E+00   -0.86166E+00 53088   0.156E+01    0.151E+01
DAV:   9    -0.947649146558E+02    0.47735E-02   -0.13337E+01 52352   0.159E+01    0.159E+01
DAV:  10    -0.935546996384E+02    0.12102E+01   -0.66824E+00 51712   0.978E+00    0.436E+00
DAV:  11    -0.938246713188E+02   -0.26997E+00   -0.15138E+00 50624   0.953E+00    0.946E+00
DAV:  12    -0.935140731395E+02    0.31060E+00   -0.90556E-01 49824   0.608E+00    0.210E+00
DAV:  13    -0.935844313391E+02   -0.70358E-01   -0.23199E-01 50144   0.437E+00    0.383E+00
DAV:  14    -0.935291822522E+02    0.55249E-01   -0.21470E-01 50208   0.331E+00    0.857E-01
DAV:  15    -0.935306989330E+02   -0.15167E-02   -0.10510E-02 51392   0.638E-01    0.349E-01
DAV:  16    -0.935304269262E+02    0.27201E-03   -0.19252E-03 49216   0.226E-01    0.232E-01
DAV:  17    -0.935304178517E+02    0.90745E-05   -0.32990E-04 50816   0.125E-01    0.137E-01
DAV:  18    -0.935304795977E+02   -0.61746E-04   -0.19405E-04 52672   0.130E-01    0.324E-02
DAV:  19    -0.935305171163E+02   -0.37519E-04   -0.49952E-05 50144   0.272E-02    0.291E-02
DAV:  20    -0.935305293165E+02   -0.12200E-04   -0.21241E-05 50880   0.265E-02    0.142E-02
DAV:  21    -0.935305396720E+02   -0.10356E-04   -0.21324E-06 33504   0.896E-03    0.987E-03
DAV:  22    -0.935305450245E+02   -0.53526E-05   -0.30502E-06 29664   0.100E-02    0.642E-03
DAV:  23    -0.935305447525E+02    0.27204E-06   -0.67919E-07 26112   0.714E-03
   1 F= -.93530545E+02 E0= -.93530545E+02  d E =0.000000E+00  mag=    25.3740
