       N       E                     dE             d eps       ncg     rms          ort
DAV:   1     0.177120759115E+04    0.17712E+04   -0.91687E+04 10752   0.198E+03
DAV:   2     0.642064207301E+01   -0.17648E+04   -0.16728E+04 10752   0.481E+02
DAV:   3    -0.102567662327E+03   -0.10899E+03   -0.10728E+03 10752   0.127E+02
DAV:   4    -0.104166930153E+03   -0.15993E+01   -0.15989E+01 10752   0.155E+01
DAV:   5    -0.104198057583E+03   -0.31127E-01   -0.31126E-01 10752   0.209E+00
SDA:   6    -0.568619283716E+02    0.47336E+02   -0.31126E-01 10752   0.241E+03 0.000E+00
CGA:   7    -0.870679475211E+02   -0.30206E+02   -0.30028E+02 10752   0.202E+02 0.106E+01
CGA:   8    -0.887612636723E+02   -0.16933E+01   -0.17266E+01 10752   0.520E+02-0.250E+00
CGA:   9    -0.912732873846E+02   -0.25120E+01   -0.17912E+01 10752   0.111E+02 0.212E+02
CGA:  10    -0.916753893335E+02   -0.40210E+00   -0.41536E+00 10752   0.575E+01-0.405E+00
CGA:  11    -0.927542277660E+02   -0.10788E+01   -0.10774E+01 10752   0.293E+01 0.474E-01
CGA:  12    -0.929933565283E+02   -0.23913E+00   -0.24013E+00 10752   0.603E+01-0.644E-02
CGA:  13    -0.932979815717E+02   -0.30463E+00   -0.32073E+00 10752   0.101E+01-0.266E+00
CGA:  14    -0.933788743283E+02   -0.80893E-01   -0.81463E-01 10752   0.450E+00-0.321E-02
CGA:  15    -0.934236618290E+02   -0.44788E-01   -0.45097E-01 10752   0.869E+00-0.797E-03
CGA:  16    -0.934591056237E+02   -0.35444E-01   -0.36275E-01 10752   0.142E+00-0.195E-01
CGA:  17    -0.934783743366E+02   -0.19269E-01   -0.19281E-01 10752   0.124E+00 0.177E-03
CGA:  18    -0.935004765301E+02   -0.22102E-01   -0.22114E-01 10752   0.643E-01-0.399E-03
CGA:  19    -0.935033534411E+02   -0.28769E-02   -0.29012E-02 10752   0.644E-01-0.465E-03
CGA:  20    -0.935158052263E+02   -0.12452E-01   -0.12438E-01 10752   0.313E-01 0.222E-03
CGA:  21    -0.935187807516E+02   -0.29755E-02   -0.29855E-02 10752   0.213E-01 0.282E-04
CGA:  22    -0.935206414901E+02   -0.18607E-02   -0.18634E-02 10752   0.391E-01-0.772E-05
CGA:  23    -0.935229395496E+02   -0.22981E-02   -0.23038E-02 10752   0.410E-02-0.918E-04
CGA:  24    -0.935238034508E+02   -0.86390E-03   -0.87008E-03 10752   0.440E-02-0.847E-04
CGA:  25    -0.935240215065E+02   -0.21806E-03   -0.21608E-03 10752   0.335E-02-0.226E-04
CGA:  26    -0.935242256293E+02   -0.20412E-03   -0.20292E-03 10752   0.103E-02-0.174E-04
CGA:  27    -0.935244548434E+02   -0.22921E-03   -0.22787E-03 10752   0.409E-03 0.156E-04
CGA:  28    -0.935244857610E+02   -0.30918E-04   -0.31449E-04 10752   0.760E-03 0.860E-05
CGA:  29    -0.935245488710E+02   -0.63110E-04   -0.64361E-04 10752   0.167E-03 0.234E-04
CGA:  30    -0.935245649654E+02   -0.16094E-04   -0.16398E-04 10752   0.803E-04 0.832E-05
CGA:  31    -0.935245739782E+02   -0.90128E-05   -0.91268E-05 10752   0.165E-03 0.514E-05
CGA:  32    -0.935245822730E+02   -0.82948E-05   -0.86339E-05 10752   0.232E-04 0.440E-05
CGA:  33    -0.935245849747E+02   -0.27017E-05   -0.26886E-05 10752   0.262E-04-0.745E-06
CGA:  34    -0.935245867380E+02   -0.17632E-05   -0.16642E-05 10752   0.314E-04-0.147E-05
CGA:  35    -0.935245893478E+02   -0.26099E-05   -0.24778E-05 10752   0.625E-05-0.326E-05
CGA:  36    -0.935245901872E+02   -0.83942E-06   -0.88096E-06 10752   0.218E-04-0.101E-05
   1 F= -.93524590E+02 E0= -.93524922E+02  d E =-.935246E+02  mag=    25.5259
       N       E                     dE             d eps       ncg     rms          ort
SDA:   1    -0.935206897876E+02    0.38996E-02    0.00000E+00 10752   0.105E-01 0.000E+00
CGA:   2    -0.935221183078E+02   -0.14285E-02   -0.14285E-02 10752   0.306E-01-0.527E-06
CGA:   3    -0.935235118130E+02   -0.13935E-02   -0.13938E-02 10752   0.400E-02 0.162E-05
CGA:   4    -0.935243158124E+02   -0.80400E-03   -0.80359E-03 10752   0.181E-02 0.476E-05
CGA:   5    -0.935244802267E+02   -0.16441E-03   -0.16440E-03 10752   0.487E-03-0.954E-06
CGA:   6    -0.935245230703E+02   -0.42844E-04   -0.42798E-04 10752   0.970E-03-0.156E-05
CGA:   7    -0.935245781589E+02   -0.55089E-04   -0.54959E-04 10752   0.139E-03-0.207E-05
CGA:   8    -0.935245930146E+02   -0.14856E-04   -0.14860E-04 10752   0.929E-04 0.604E-06
CGA:   9    -0.935246056025E+02   -0.12588E-04   -0.12560E-04 10752   0.809E-04 0.136E-05
CGA:  10    -0.935246080776E+02   -0.24751E-05   -0.24939E-05 10752   0.212E-04 0.210E-06
CGA:  11    -0.935246123480E+02   -0.42704E-05   -0.42852E-05 10752   0.631E-05-0.149E-06
CGA:  12    -0.935246130716E+02   -0.72359E-06   -0.72365E-06 10752   0.105E-04-0.165E-06
   2 F= -.93524613E+02 E0= -.93524947E+02  d E =-.228844E-04  mag=    25.5261
       N       E                     dE             d eps       ncg     rms          ort
SDA:   1    -0.935231751439E+02    0.14372E-02    0.00000E+00 10752   0.377E-01 0.000E+00
CGA:   2    -0.935239922274E+02   -0.81708E-03   -0.81641E-03 10752   0.175E-02 0.265E-04
CGA:   3    -0.935243058317E+02   -0.31360E-03   -0.31362E-03 10752   0.156E-02-0.293E-06
CGA:   4    -0.935245004272E+02   -0.19460E-03   -0.19460E-03 10752   0.442E-03-0.524E-06
CGA:   5    -0.935245729286E+02   -0.72501E-04   -0.72492E-04 10752   0.345E-03 0.181E-06
CGA:   6    -0.935245859948E+02   -0.13066E-04   -0.13073E-04 10752   0.148E-03 0.447E-07
CGA:   7    -0.935245946614E+02   -0.86666E-05   -0.86701E-05 10752   0.490E-04 0.722E-07
CGA:   8    -0.935246037336E+02   -0.90722E-05   -0.90695E-05 10752   0.110E-04 0.194E-07
CGA:   9    -0.935246065021E+02   -0.27684E-05   -0.27777E-05 10752   0.706E-05-0.719E-07
CGA:  10    -0.935246068307E+02   -0.32861E-06   -0.32881E-06 10752   0.623E-05 0.246E-09
   3 F= -.93524607E+02 E0= -.93524940E+02  d E =-.166435E-04  mag=    25.5261
       N       E                     dE             d eps       ncg     rms          ort
SDA:   1    -0.935245678240E+02    0.38678E-04    0.00000E+00 10752   0.633E-03 0.000E+00
CGA:   2    -0.935246016923E+02   -0.33868E-04   -0.33855E-04 10752   0.765E-04 0.754E-07
CGA:   3    -0.935246038425E+02   -0.21503E-05   -0.21520E-05 10752   0.179E-04 0.636E-08
CGA:   4    -0.935246062598E+02   -0.24173E-05   -0.24145E-05 10752   0.127E-04 0.858E-07
CGA:   5    -0.935246076915E+02   -0.14317E-05   -0.14316E-05 10752   0.371E-05 0.104E-07
CGA:   6    -0.935246081702E+02   -0.47868E-06   -0.47936E-06 10752   0.845E-05-0.735E-07
   4 F= -.93524608E+02 E0= -.93524941E+02  d E =-.179830E-04  mag=    25.5261
       N       E                     dE             d eps       ncg     rms          ort
SDA:   1    -0.935225760585E+02    0.20316E-02    0.00000E+00 10752   0.986E-01 0.000E+00
CGA:   2    -0.935246013165E+02   -0.20253E-02   -0.20226E-02 10752   0.362E-04 0.114E-03
CGA:   3    -0.935246054034E+02   -0.40869E-05   -0.40849E-05 10752   0.152E-04 0.102E-06
CGA:   4    -0.935246063483E+02   -0.94492E-06   -0.94807E-06 10752   0.133E-04 0.576E-07
   5 F= -.93524606E+02 E0= -.93524940E+02  d E =-.161611E-04  mag=    25.5261
       N       E                     dE             d eps       ncg     rms          ort
SDA:   1    -0.935245608996E+02    0.44504E-04    0.00000E+00 10752   0.154E-02 0.000E+00
CGA:   2    -0.935245991748E+02   -0.38275E-04   -0.38281E-04 10752   0.173E-03-0.281E-06
CGA:   3    -0.935246068861E+02   -0.77113E-05   -0.77128E-05 10752   0.736E-05 0.266E-07
CGA:   4    -0.935246078978E+02   -0.10117E-05   -0.10098E-05 10752   0.140E-05 0.531E-07
CGA:   5    -0.935246080534E+02   -0.15567E-06   -0.15578E-06 10752   0.955E-06 0.142E-07
   6 F= -.93524608E+02 E0= -.93524941E+02  d E =-.178662E-04  mag=    25.5261
