 vasp.6.4.3 19Mar24 (build Mar 26 2024 14:05:37) complex                        
  
 executed on             LinuxIFC date 2024.12.16  08:05:12
 running  128 mpi-ranks, on    1 nodes
 distrk:  each k-point on   32 cores,    4 groups
 distr:  one band on NCORE=   1 cores,   32 groups


--------------------------------------------------------------------------------------------------------


 INCAR:
   ALGO = Normal
   EDIFF = 1e-06
   EDIFFG = -0.01
   ENCUT = 520
   GGA = Pe
   IBRION = -1
   ISIF = 4
   ISMEAR = -5
   ISPIN = 2
   KPAR = 4
   LCHARG = True
   LORBIT = 11
   LREAL = False
   LWAVE = False
   MAGMOM = 1*2.746 1*2.748 2*2.746 2*2.748 1*2.746 1*2.748 1*2.746 3*0.311
   NELM = 200
   NSW = 0
   PREC = Accurate
   SIGMA = 0.2

 POTCAR:    PAW_PBE Fe_pv 02Aug2007               
 POTCAR:    PAW_PBE Pt 04Feb2005                  
 -----------------------------------------------------------------------------
|                                                                             |
|           W    W    AA    RRRRR   N    N  II  N    N   GGGG   !!!           |
|           W    W   A  A   R    R  NN   N  II  NN   N  G    G  !!!           |
|           W    W  A    A  R    R  N N  N  II  N N  N  G       !!!           |
|           W WW W  AAAAAA  RRRRR   N  N N  II  N  N N  G  GGG   !            |
|           WW  WW  A    A  R   R   N   NN  II  N   NN  G    G                |
|           W    W  A    A  R    R  N    N  II  N    N   GGGG   !!!           |
|                                                                             |
|     For optimal performance we recommend to set                             |
|       NCORE = 2 up to number-of-cores-per-socket                            |
|     NCORE specifies how many cores store one orbital (NPAR=cpu/NCORE).      |
|     This setting can greatly improve the performance of VASP for DFT.       |
|     The default, NCORE=1 might be grossly inefficient on modern             |
|     multi-core architectures or massively parallel machines. Do your        |
|     own testing! More info at https://www.vasp.at/wiki/index.php/NCORE      |
|     Unfortunately you need to use the default for GW and RPA                |
|     calculations (for HF NCORE is supported but not extensively tested      |
|     yet).                                                                   |
|                                                                             |
 -----------------------------------------------------------------------------

 POTCAR:    PAW_PBE Fe_pv 02Aug2007               
   SHA256 =  5d22e414b1f82158bf2c7ecb8b97b28fd0923e48cadc1c3bf74d524558f5dd32 Fe_pv/POTCAR          
   COPYR  = (c) Copyright 02Aug2007 Georg Kresse                                                    
   COPYR  = This file is part of the software VASP. Any use, copying, and all other rights are regul
   COPYR  = If you do not have a valid VASP license, you may not use, copy or distribute this file. 
   VRHFIN =Fe:  3pd7s1                                                                              
   LEXCH  = PE                                                                                      
   EATOM  =  2457.4239 eV,  180.6156 Ry                                                             
                                                                                                    
   TITEL  = PAW_PBE Fe_pv 02Aug2007                                                                 
   LULTRA =        F    use ultrasoft PP ?                                                          
   IUNSCR =        1    unscreen: 0-lin 1-nonlin 2-no                                               
   RPACOR =    1.750    partial core radius                                                         
   POMASS =   55.847; ZVAL   =   14.000    mass and valenz                                          
   RCORE  =    2.200    outmost cutoff radius                                                       
   RWIGS  =    2.200; RWIGS  =    1.164    wigner-seitz radius (au A)                               
   ENMAX  =  293.238; ENMIN  =  219.928 eV                                                          
   ICORE  =        3    local potential                                                             
   LCOR   =        T    correct aug charges                                                         
   LPAW   =        T    paw PP                                                                      
   EAUG   =  578.342                                                                                
   DEXC   =    0.000                                                                                
   RMAX   =    2.249    core radius for proj-oper                                                   
   RAUG   =    1.300    factor for augmentation sphere                                              
   RDEP   =    2.296    radius for radial grids                                                     
   RDEPT  =    1.766    core radius for aug-charge                                                  
                                                                                                    
   Atomic configuration                                                                             
    8 entries                                                                                       
     n  l   j            E        occ.                                                              
     1  0  0.50     -6993.8440   2.0000                                                             
     2  0  0.50      -814.6047   2.0000                                                             
     2  1  1.50      -693.3689   6.0000                                                             
     3  0  0.50       -89.4732   2.0000                                                             
     3  1  1.50       -55.6373   6.0000                                                             
     3  2  2.50        -3.8151   7.0000                                                             
     4  0  0.50        -4.2551   1.0000                                                             
     4  3  2.50        -1.3606   0.0000                                                             
   Description                                                                                      
     l       E           TYP  RCUT    TYP  RCUT                                                     
     1    -55.6372668     23  2.000                                                                 
     1     -5.4423304     23  2.000                                                                 
     2     -3.8151096     23  2.200                                                                 
     2     -5.1756922     23  2.200                                                                 
     0     -4.2550951     23  2.200                                                                 
     0     27.2116520     23  2.200                                                                 
     3     -1.3605826     23  2.200                                                                 
  local pseudopotential read in
  partial core-charges read in
  partial kinetic energy density read in
  atomic valenz-charges read in
  non local Contribution for L=           1  read in
    real space projection operators read in
  non local Contribution for L=           1  read in
    real space projection operators read in
  non local Contribution for L=           2  read in
    real space projection operators read in
  non local Contribution for L=           2  read in
    real space projection operators read in
  non local Contribution for L=           0  read in
    real space projection operators read in
  non local Contribution for L=           0  read in
    real space projection operators read in
    PAW grid and wavefunctions read in
 
   number of l-projection  operators is LMAX  =           6
   number of lm-projection operators is LMMAX =          18
 
 POTCAR:    PAW_PBE Pt 04Feb2005                  
   SHA256 =  3ed90460adef76debcff1cfb73ee1349b515b1a3db03439735b44de3a8db7dc8 Pt/POTCAR             
   COPYR  = (c) Copyright 04Feb2005 Georg Kresse                                                    
   COPYR  = This file is part of the software VASP. Any use, copying, and all other rights are regul
   COPYR  = If you do not have a valid VASP license, you may not use, copy or distribute this file. 
   VRHFIN =Pt: s1d9                                                                                 
   LEXCH  = PE                                                                                      
   EATOM  =   729.1176 eV,   53.5886 Ry                                                             
                                                                                                    
   TITEL  = PAW_PBE Pt 04Feb2005                                                                    
   LULTRA =        F    use ultrasoft PP ?                                                          
   IUNSCR =        1    unscreen: 0-lin 1-nonlin 2-no                                               
   RPACOR =    2.330    partial core radius                                                         
   POMASS =  195.080; ZVAL   =   10.000    mass and valenz                                          
   RCORE  =    2.600    outmost cutoff radius                                                       
   RWIGS  =    2.750; RWIGS  =    1.455    wigner-seitz radius (au A)                               
   ENMAX  =  230.283; ENMIN  =  172.712 eV                                                          
   ICORE  =        3    local potential                                                             
   LCOR   =        T    correct aug charges                                                         
   LPAW   =        T    paw PP                                                                      
   EAUG   =  358.966                                                                                
   DEXC   =    0.000                                                                                
   RMAX   =    2.658    core radius for proj-oper                                                   
   RAUG   =    1.300    factor for augmentation sphere                                              
   RDEP   =    2.761    radius for radial grids                                                     
   RDEPT  =    2.203    core radius for aug-charge                                                  
                                                                                                    
   Atomic configuration                                                                             
   16 entries                                                                                       
     n  l   j            E        occ.                                                              
     1  0  0.50    -78401.1885   2.0000                                                             
     2  0  0.50    -13770.7750   2.0000                                                             
     2  1  1.50    -11931.0468   6.0000                                                             
     3  0  0.50     -3234.7234   2.0000                                                             
     3  1  1.50     -2699.2216   6.0000                                                             
     3  2  2.50     -2119.5714  10.0000                                                             
     4  0  0.50      -695.1528   2.0000                                                             
     4  1  1.50      -519.6034   6.0000                                                             
     4  2  2.50      -306.6786  10.0000                                                             
     4  3  3.50       -70.1041  14.0000                                                             
     5  0  0.50      -101.7747   2.0000                                                             
     5  1  1.50       -55.9873   6.0000                                                             
     5  2  2.50        -6.1423   9.0000                                                             
     6  0  0.50        -5.6573   1.0000                                                             
     6  1  1.50        -6.8029   0.0000                                                             
     5  3  2.50        -1.3606   0.0000                                                             
   Description                                                                                      
     l       E           TYP  RCUT    TYP  RCUT                                                     
     2     -6.1423404     23  2.500                                                                 
     2     -7.5029230     23  2.500                                                                 
     0     -5.6573207     23  2.500                                                                 
     0      0.7416693     23  2.500                                                                 
     1     -2.7211652     23  2.600                                                                 
     1     20.4087390     23  2.600                                                                 
     3     -1.3605826     23  2.500                                                                 
  local pseudopotential read in
  partial core-charges read in
  partial kinetic energy density read in
  atomic valenz-charges read in
  non local Contribution for L=           2  read in
    real space projection operators read in
  non local Contribution for L=           2  read in
    real space projection operators read in
  non local Contribution for L=           0  read in
    real space projection operators read in
  non local Contribution for L=           0  read in
    real space projection operators read in
  non local Contribution for L=           1  read in
    real space projection operators read in
  non local Contribution for L=           1  read in
    real space projection operators read in
    PAW grid and wavefunctions read in
 
   number of l-projection  operators is LMAX  =           6
   number of lm-projection operators is LMMAX =          18
 
  PAW_PBE Fe_pv 02Aug2007               :
 energy of atom  1       EATOM=-2457.4239
 kinetic energy error for atom=    0.0062 (will be added to EATOM!!)
  PAW_PBE Pt 04Feb2005                  :
 energy of atom  2       EATOM= -729.1176
 kinetic energy error for atom=    0.0032 (will be added to EATOM!!)
 
 
 POSCAR: Fe9 Pt3
  positions in direct lattice
  velocities in cartesian coordinates


 exchange-correlation table for PE
   RHO(1)=    0.500       N(1)  =     2000
   RHO(2)=  100.500       N(2)  =     4000
 


--------------------------------------------------------------------------------------------------------


 ion  position               nearest neighbor table
   1  0.000  0.500  0.167-   7 2.64   7 2.64   7 2.64   7 2.64   5 2.64   5 2.64   4 2.64  10 2.64
                             4 2.64  10 2.64  11 2.65  11 2.65
   2  0.000  0.500  0.500-   8 2.64   8 2.64   8 2.64   8 2.64  11 2.65  12 2.65  12 2.65  11 2.65
                             5 2.65   6 2.65   5 2.65   6 2.65
   3  0.000  0.500  0.833-   9 2.64   9 2.64   9 2.64   9 2.64   6 2.64   6 2.64   4 2.64  10 2.64
                             4 2.64  10 2.64  12 2.65  12 2.65
   4  0.500  0.500  0.000-  10 2.64  10 2.64  10 2.64  10 2.64   1 2.64   7 2.64   9 2.64   3 2.64
                             1 2.64   3 2.64   7 2.64   9 2.64
   5  0.500  0.500  0.333-  11 2.64  11 2.64  11 2.64  11 2.64   7 2.64   1 2.64   1 2.64   7 2.64
                             8 2.65   2 2.65   8 2.65   2 2.65
   6  0.500  0.500  0.667-  12 2.64  12 2.64  12 2.64  12 2.64   9 2.64   3 2.64   3 2.64   9 2.64
                             2 2.65   8 2.65   2 2.65   8 2.65
   7  0.500  0.000  0.167-   1 2.64   1 2.64   1 2.64   1 2.64   5 2.64   5 2.64  10 2.64   4 2.64
                            10 2.64   4 2.64  11 2.65  11 2.65
   8  0.500  0.000  0.500-   2 2.64   2 2.64   2 2.64   2 2.64  12 2.65  11 2.65  12 2.65  11 2.65
                             6 2.65   5 2.65   5 2.65   6 2.65
   9  0.500  0.000  0.833-   3 2.64   3 2.64   3 2.64   3 2.64   6 2.64   6 2.64  10 2.64   4 2.64
                            10 2.64   4 2.64  12 2.65  12 2.65
  10  0.000  0.000  0.000-   4 2.64   4 2.64   4 2.64   4 2.64   9 2.64   1 2.64   3 2.64   3 2.64
                             1 2.64   7 2.64   9 2.64   7 2.64
  11  0.000  0.000  0.333-   5 2.64   5 2.64   5 2.64   5 2.64   1 2.65   7 2.65   7 2.65   1 2.65
                             2 2.65   2 2.65   8 2.65   8 2.65
  12  0.000  0.000  0.667-   6 2.64   6 2.64   6 2.64   6 2.64   3 2.65   9 2.65   9 2.65   3 2.65
                             2 2.65   8 2.65   8 2.65   2 2.65
 
  LATTYP: Found a simple tetragonal cell.
 ALAT       =     3.7393617269
 C/A-ratio  =     3.0026673146
  
  Lattice vectors:
  
 A1 = (   3.7393617269,   0.0000000000,   0.0000000000)
 A2 = (   0.0000000000,   3.7393617269,   0.0000000000)
 A3 = (   0.0000000000,   0.0000000000,  11.2280592350)


Analysis of symmetry for initial positions (statically):
=====================================================================
 Subroutine PRICEL returns:
 Original cell was already a primitive cell.
 

 Routine SETGRP: Setting up the symmetry group for a 
 simple tetragonal supercell.


 Subroutine GETGRP returns: Found 16 space group operations
 (whereof 16 operations were pure point group operations)
 out of a pool of 16 trial point group operations.


The static configuration has the point symmetry D_4h.


Analysis of symmetry for dynamics (positions and initial velocities):
=====================================================================
 Subroutine PRICEL returns:
 Original cell was already a primitive cell.
 

 Routine SETGRP: Setting up the symmetry group for a 
 simple tetragonal supercell.


 Subroutine GETGRP returns: Found 16 space group operations
 (whereof 16 operations were pure point group operations)
 out of a pool of 16 trial point group operations.


The dynamic configuration has the point symmetry D_4h.


Analysis of structural, dynamic, and magnetic symmetry:
=====================================================================
 Subroutine PRICEL returns:
 Original cell was already a primitive cell.
 

 Routine SETGRP: Setting up the symmetry group for a 
 simple tetragonal supercell.


 Subroutine GETGRP returns: Found 16 space group operations
 (whereof 16 operations were pure point group operations)
 out of a pool of 16 trial point group operations.


The overall configuration has the point symmetry D_4h.


 Subroutine INISYM returns: Found 16 space group operations
 (whereof 16 operations are pure point group operations),
 and found     1 'primitive' translations


----------------------------------------------------------------------------------------

                                     Primitive cell                                     

  volume of cell :     157.0000

  direct lattice vectors                    reciprocal lattice vectors
     3.739361727  0.000000000  0.000000000     0.267425318  0.000000000  0.000000000
     0.000000000  3.739361727  0.000000000     0.000000000  0.267425318  0.000000000
     0.000000000  0.000000000 11.228059235     0.000000000  0.000000000  0.089062587

  length of vectors
     3.739361727  3.739361727 11.228059235     0.267425318  0.267425318  0.089062587

  position of ions in fractional coordinates (direct lattice)
     0.000000000  0.500000000  0.166616708
     0.000000000  0.500000000  0.500000000
     0.000000000  0.500000000  0.833383292
     0.500000000  0.500000000  0.000000000
     0.500000000  0.500000000  0.333193961
     0.500000000  0.500000000  0.666806039
     0.500000000  0.000000000  0.166616708
     0.500000000  0.000000000  0.500000000
     0.500000000  0.000000000  0.833383292
     0.000000000  0.000000000  0.000000000
     0.000000000  0.000000000  0.333287032
     0.000000000  0.000000000  0.666712968

  ion indices of the primitive-cell ions
   primitive index   ion index
                 1           1
                 2           2
                 3           3
                 4           4
                 5           5
                 6           6
                 7           7
                 8           8
                 9           9
                10          10
                11          11
                12          12

----------------------------------------------------------------------------------------

 
 
 KPOINTS: pymatgen with grid density = 8800 / numb

Automatic generation of k-mesh.
 Grid dimensions read from file:
 generate k-points for:   13   13    4

 Generating k-lattice:

  Cartesian coordinates                     Fractional coordinates (reciprocal lattice)
     0.020571178  0.000000000  0.000000000     0.076923077  0.000000000  0.000000000
     0.000000000  0.020571178  0.000000000     0.000000000  0.076923077  0.000000000
     0.000000000  0.000000000  0.022265647     0.000000000  0.000000000  0.250000000

  Length of vectors
     0.020571178  0.020571178  0.022265647

  Shift w.r.t. Gamma in fractional coordinates (k-lattice)
     0.000000000  0.000000000  0.000000000

 TETIRR: Found   1010 inequivalent tetrahedra from     4056
 
 Subroutine IBZKPT returns following result:
 ===========================================
 
 Found     84 irreducible k-points:
 
 Following reciprocal coordinates:
            Coordinates               Weight
  0.000000  0.000000  0.000000      1.000000
  0.076923  0.000000  0.000000      4.000000
  0.153846  0.000000  0.000000      4.000000
  0.230769  0.000000  0.000000      4.000000
  0.307692  0.000000  0.000000      4.000000
  0.384615  0.000000  0.000000      4.000000
  0.461538  0.000000  0.000000      4.000000
  0.076923  0.076923  0.000000      4.000000
  0.153846  0.076923  0.000000      8.000000
  0.230769  0.076923  0.000000      8.000000
  0.307692  0.076923  0.000000      8.000000
  0.384615  0.076923  0.000000      8.000000
  0.461538  0.076923  0.000000      8.000000
  0.153846  0.153846  0.000000      4.000000
  0.230769  0.153846  0.000000      8.000000
  0.307692  0.153846  0.000000      8.000000
  0.384615  0.153846  0.000000      8.000000
  0.461538  0.153846  0.000000      8.000000
  0.230769  0.230769  0.000000      4.000000
  0.307692  0.230769  0.000000      8.000000
  0.384615  0.230769  0.000000      8.000000
  0.461538  0.230769  0.000000      8.000000
  0.307692  0.307692  0.000000      4.000000
  0.384615  0.307692  0.000000      8.000000
  0.461538  0.307692  0.000000      8.000000
  0.384615  0.384615  0.000000      4.000000
  0.461538  0.384615  0.000000      8.000000
  0.461538  0.461538  0.000000      4.000000
  0.000000  0.000000  0.250000      2.000000
  0.076923  0.000000  0.250000      8.000000
  0.153846  0.000000  0.250000      8.000000
  0.230769  0.000000  0.250000      8.000000
  0.307692  0.000000  0.250000      8.000000
  0.384615  0.000000  0.250000      8.000000
  0.461538  0.000000  0.250000      8.000000
  0.076923  0.076923  0.250000      8.000000
  0.153846  0.076923  0.250000     16.000000
  0.230769  0.076923  0.250000     16.000000
  0.307692  0.076923  0.250000     16.000000
  0.384615  0.076923  0.250000     16.000000
  0.461538  0.076923  0.250000     16.000000
  0.153846  0.153846  0.250000      8.000000
  0.230769  0.153846  0.250000     16.000000
  0.307692  0.153846  0.250000     16.000000
  0.384615  0.153846  0.250000     16.000000
  0.461538  0.153846  0.250000     16.000000
  0.230769  0.230769  0.250000      8.000000
  0.307692  0.230769  0.250000     16.000000
  0.384615  0.230769  0.250000     16.000000
  0.461538  0.230769  0.250000     16.000000
  0.307692  0.307692  0.250000      8.000000
  0.384615  0.307692  0.250000     16.000000
  0.461538  0.307692  0.250000     16.000000
  0.384615  0.384615  0.250000      8.000000
  0.461538  0.384615  0.250000     16.000000
  0.461538  0.461538  0.250000      8.000000
  0.000000  0.000000  0.500000      1.000000
  0.076923  0.000000  0.500000      4.000000
  0.153846  0.000000  0.500000      4.000000
  0.230769  0.000000  0.500000      4.000000
  0.307692  0.000000  0.500000      4.000000
  0.384615  0.000000  0.500000      4.000000
  0.461538  0.000000  0.500000      4.000000
  0.076923  0.076923  0.500000      4.000000
  0.153846  0.076923  0.500000      8.000000
  0.230769  0.076923  0.500000      8.000000
  0.307692  0.076923  0.500000      8.000000
  0.384615  0.076923  0.500000      8.000000
  0.461538  0.076923  0.500000      8.000000
  0.153846  0.153846  0.500000      4.000000
  0.230769  0.153846  0.500000      8.000000
  0.307692  0.153846  0.500000      8.000000
  0.384615  0.153846  0.500000      8.000000
  0.461538  0.153846  0.500000      8.000000
  0.230769  0.230769  0.500000      4.000000
  0.307692  0.230769  0.500000      8.000000
  0.384615  0.230769  0.500000      8.000000
  0.461538  0.230769  0.500000      8.000000
  0.307692  0.307692  0.500000      4.000000
  0.384615  0.307692  0.500000      8.000000
  0.461538  0.307692  0.500000      8.000000
  0.384615  0.384615  0.500000      4.000000
  0.461538  0.384615  0.500000      8.000000
  0.461538  0.461538  0.500000      4.000000
 
 Following cartesian coordinates:
            Coordinates               Weight
  0.000000  0.000000  0.000000      1.000000
  0.020571  0.000000  0.000000      4.000000
  0.041142  0.000000  0.000000      4.000000
  0.061714  0.000000  0.000000      4.000000
  0.082285  0.000000  0.000000      4.000000
  0.102856  0.000000  0.000000      4.000000
  0.123427  0.000000  0.000000      4.000000
  0.020571  0.020571  0.000000      4.000000
  0.041142  0.020571  0.000000      8.000000
  0.061714  0.020571  0.000000      8.000000
  0.082285  0.020571  0.000000      8.000000
  0.102856  0.020571  0.000000      8.000000
  0.123427  0.020571  0.000000      8.000000
  0.041142  0.041142  0.000000      4.000000
  0.061714  0.041142  0.000000      8.000000
  0.082285  0.041142  0.000000      8.000000
  0.102856  0.041142  0.000000      8.000000
  0.123427  0.041142  0.000000      8.000000
  0.061714  0.061714  0.000000      4.000000
  0.082285  0.061714  0.000000      8.000000
  0.102856  0.061714  0.000000      8.000000
  0.123427  0.061714  0.000000      8.000000
  0.082285  0.082285  0.000000      4.000000
  0.102856  0.082285  0.000000      8.000000
  0.123427  0.082285  0.000000      8.000000
  0.102856  0.102856  0.000000      4.000000
  0.123427  0.102856  0.000000      8.000000
  0.123427  0.123427  0.000000      4.000000
  0.000000  0.000000  0.022266      2.000000
  0.020571  0.000000  0.022266      8.000000
  0.041142  0.000000  0.022266      8.000000
  0.061714  0.000000  0.022266      8.000000
  0.082285  0.000000  0.022266      8.000000
  0.102856  0.000000  0.022266      8.000000
  0.123427  0.000000  0.022266      8.000000
  0.020571  0.020571  0.022266      8.000000
  0.041142  0.020571  0.022266     16.000000
  0.061714  0.020571  0.022266     16.000000
  0.082285  0.020571  0.022266     16.000000
  0.102856  0.020571  0.022266     16.000000
  0.123427  0.020571  0.022266     16.000000
  0.041142  0.041142  0.022266      8.000000
  0.061714  0.041142  0.022266     16.000000
  0.082285  0.041142  0.022266     16.000000
  0.102856  0.041142  0.022266     16.000000
  0.123427  0.041142  0.022266     16.000000
  0.061714  0.061714  0.022266      8.000000
  0.082285  0.061714  0.022266     16.000000
  0.102856  0.061714  0.022266     16.000000
  0.123427  0.061714  0.022266     16.000000
  0.082285  0.082285  0.022266      8.000000
  0.102856  0.082285  0.022266     16.000000
  0.123427  0.082285  0.022266     16.000000
  0.102856  0.102856  0.022266      8.000000
  0.123427  0.102856  0.022266     16.000000
  0.123427  0.123427  0.022266      8.000000
  0.000000  0.000000  0.044531      1.000000
  0.020571  0.000000  0.044531      4.000000
  0.041142  0.000000  0.044531      4.000000
  0.061714  0.000000  0.044531      4.000000
  0.082285  0.000000  0.044531      4.000000
  0.102856  0.000000  0.044531      4.000000
  0.123427  0.000000  0.044531      4.000000
  0.020571  0.020571  0.044531      4.000000
  0.041142  0.020571  0.044531      8.000000
  0.061714  0.020571  0.044531      8.000000
  0.082285  0.020571  0.044531      8.000000
  0.102856  0.020571  0.044531      8.000000
  0.123427  0.020571  0.044531      8.000000
  0.041142  0.041142  0.044531      4.000000
  0.061714  0.041142  0.044531      8.000000
  0.082285  0.041142  0.044531      8.000000
  0.102856  0.041142  0.044531      8.000000
  0.123427  0.041142  0.044531      8.000000
  0.061714  0.061714  0.044531      4.000000
  0.082285  0.061714  0.044531      8.000000
  0.102856  0.061714  0.044531      8.000000
  0.123427  0.061714  0.044531      8.000000
  0.082285  0.082285  0.044531      4.000000
  0.102856  0.082285  0.044531      8.000000
  0.123427  0.082285  0.044531      8.000000
  0.102856  0.102856  0.044531      4.000000
  0.123427  0.102856  0.044531      8.000000
  0.123427  0.123427  0.044531      4.000000
 


--------------------------------------------------------------------------------------------------------




 Dimension of arrays:
   k-points           NKPTS =     84   k-points in BZ     NKDIM =     84   number of bands    NBANDS=    128
   number of dos      NEDOS =    301   number of ions     NIONS =     12
   non local maximal  LDIM  =      6   non local SUM 2l+1 LMDIM =     18
   total plane-waves  NPLWV =  65856
   max r-space proj   IRMAX =      1   max aug-charges    IRDMAX=  25602
   dimension x,y,z NGX =    28 NGY =   28 NGZ =   84
   dimension x,y,z NGXF=    56 NGYF=   56 NGZF=  168
   support grid    NGXF=    56 NGYF=   56 NGZF=  168
   ions per type =               9   3
   NGX,Y,Z   is equivalent  to a cutoff of  12.45, 12.45, 12.44 a.u.
   NGXF,Y,Z  is equivalent  to a cutoff of  24.90, 24.90, 24.87 a.u.

 SYSTEM =  unknown system                          
 POSCAR =  Fe9 Pt3                                 

 Startparameter for this run:
   NWRITE =      2    write-flag & timer
   PREC   = accura    normal or accurate (medium, high low for compatibility)
   ISTART =      0    job   : 0-new  1-cont  2-samecut
   ICHARG =      2    charge: 1-file 2-atom 10-const
   ISPIN  =      2    spin polarized calculation?
   LNONCOLLINEAR =      F non collinear calculations
   LSORBIT =      F    spin-orbit coupling
   INIWAV =      1    electr: 0-lowe 1-rand  2-diag
   LASPH  =      F    aspherical Exc in radial PAW
 Electronic Relaxation 1
   ENCUT  =  520.0 eV  38.22 Ry    6.18 a.u.   6.95  6.95 20.88*2*pi/ulx,y,z
   ENINI  =  520.0     initial cutoff
   ENAUG  =  578.3 eV  augmentation charge cutoff
   NELM   =    200;   NELMIN=  2; NELMDL=  0     # of ELM steps 
   EDIFF  = 0.1E-05   stopping-criterion for ELM
   LREAL  =      F    real-space projection
   NLSPLINE    = F    spline interpolate recip. space projectors
   LCOMPAT=      F    compatible to vasp.4.4
   GGA_COMPAT  = T    GGA compatible to vasp.4.4-vasp.4.6
   LMAXPAW     = -100 max onsite density
   LMAXMIX     =    2 max onsite mixed and CHGCAR
   VOSKOWN=      0    Vosko Wilk Nusair interpolation
   ROPT   =    0.00000   0.00000
 Ionic relaxation
   EDIFFG = -.1E-01   stopping-criterion for IOM
   NSW    =      0    number of steps for IOM
   NBLOCK =      1;   KBLOCK =      1    inner block; outer block 
   IBRION =     -1    ionic relax: 0-MD 1-quasi-New 2-CG
   NFREE  =      0    steps in history (QN), initial steepest desc. (CG)
   ISIF   =      4    stress and relaxation
   IWAVPR =     10    prediction:  0-non 1-charg 2-wave 3-comb
   ISYM   =      2    0-nonsym 1-usesym 2-fastsym
   LCORR  =      T    Harris-Foulkes like correction to forces

   POTIM  = 0.5000    time-step for ionic-motion
   TEIN   =    0.0    initial temperature
   TEBEG  =    0.0;   TEEND  =   0.0 temperature during run
   SMASS  =  -3.00    Nose mass-parameter (am)
   estimated Nose-frequenzy (Omega)   =  0.10E-29 period in steps = 0.13E+47 mass=  -0.320E-27a.u.
   SCALEE = 1.0000    scale energy and forces
   NPACO  =    256;   APACO  = 10.0  distance and # of slots for P.C.
   PSTRESS=    0.0 pullay stress

  Mass of Ions in am
   POMASS =  55.85195.08
  Ionic Valenz
   ZVAL   =  14.00 10.00
  Atomic Wigner-Seitz radii
   RWIGS  =  -1.00 -1.00
  virtual crystal weights 
   VCA    =   1.00  1.00
   NELECT =     156.0000    total number of electrons
   NUPDOWN=      -1.0000    fix difference up-down

 DOS related values:
   EMIN   =  10.00;   EMAX   =-10.00  energy-range for DOS
   EFERMI =   0.00;   METHOD = LEGACY      
   ISMEAR =    -5;   SIGMA  =   0.20  broadening in eV -4-tet -1-fermi 0-gaus

 Electronic relaxation 2 (details)
   IALGO  =     38    algorithm
   LDIAG  =      T    sub-space diagonalisation (order eigenvalues)
   LSUBROT=      F    optimize rotation matrix (better conditioning)
   TURBO    =      0    0=normal 1=particle mesh
   IRESTART =      0    0=no restart 2=restart with 2 vectors
   NREBOOT  =      0    no. of reboots
   NMIN     =      0    reboot dimension
   EREF     =   0.00    reference energy to select bands
   IMIX   =      4    mixing-type and parameters
     AMIX     =   0.40;   BMIX     =  1.00
     AMIX_MAG =   1.60;   BMIX_MAG =  1.00
     AMIN     =   0.10
     WC   =   100.;   INIMIX=   1;  MIXPRE=   1;  MAXMIX= -45

 Intra band minimization:
   WEIMIN = 0.0000     energy-eigenvalue tresh-hold
   EBREAK =  0.20E-08  absolut break condition
   DEPER  =   0.30     relativ break condition  

   TIME   =   0.40     timestep for ELM

  volume/ion in A,a.u.               =      13.08        88.29
  Fermi-wavevector in a.u.,A,eV,Ry     =   1.633615  3.087085 36.309857  2.668699
  Thomas-Fermi vector in A             =   2.725391
 
 Write flags
   LWAVE        =      F    write WAVECAR
   LDOWNSAMPLE  =      F    k-point downsampling of WAVECAR
   LCHARG       =      T    write CHGCAR
   LVTOT        =      F    write LOCPOT, total local potential
   LVHAR        =      F    write LOCPOT, Hartree potential only
   WRT_POTENTIAL= false  ! write potential to hdf5 file
   LELF         =      F    write electronic localiz. function (ELF)
   LORBIT       =     11    0 simple, 1 ext, 2 COOP (PROOUT), +10 PAW based schemes


 Dipole corrections
   LMONO      =      F    monopole corrections only (constant potential shift)
   LDIPOL     =      F    correct potential (dipole corrections)
   IDIPOL     =      0    1-x, 2-y, 3-z, 4-all directions 
   EPSILON    =  1.0000000 bulk dielectric constant
   LVACPOTAV  =      F  vacuum potentials using an averaging scheme for the charge density
   VACPOTFLAT =  0.1000000 required flatness to determine vacuum potential
 Exchange correlation treatment:
   GGA     = PE    functional components
   XC_C    = 1    coefficients multiplying the functional components
   LIBXC   =     F    Libxc                    
   VOSKOWN =     0    Vosko Wilk Nusair interpolation
   LHFCALC =     F    Hartree Fock is set to
   LHFONE  =     F    Hartree Fock one center treatment
   AEXX    =    0.0000 exact exchange contribution

 Parameters of functionals:
   PE:
     No parameter
 
 Van der Waals corrections
   IVDW    =     0    specifies the selected vdW correction

 Linear response parameters
   LEPSILON=     F    determine dielectric tensor
   LRPA    =     F    only Hartree local field effects (RPA)
   LNABLA  =     F    use nabla operator in PAW spheres
   LVEL    =     F    velocity operator in full k-point grid
   CSHIFT  =0.1000    complex shift for real part using Kramers Kronig
   OMEGAMAX=  -1.0    maximum frequency
   DEG_THRESHOLD= 0.2000000E-02 threshold for treating states as degnerate
   RTIME   =   -0.100 relaxation time in fs
  (WPLASMAI=    0.000 imaginary part of plasma frequency in eV, 0.658/RTIME)
   DFIELD  = 0.0000000 0.0000000 0.0000000 field for delta impulse in time
 
  Optional k-point grid parameters
   LKPOINTS_OPT  =     F    use optional k-point grid
   KPOINTS_OPT_MODE=     1    mode for optional k-point grid
 
 Orbital magnetization related:
   ORBITALMAG=     F  switch on orbital magnetization
   LCHIMAG   =     F  perturbation theory with respect to B field
   DQ        =  0.001000  dq finite difference perturbation B field
   LLRAUG    =     F  two centre corrections for induced B field
   LBONE     =     F  B-component reconstruction in AE one-centre
   LVGVCALC  =     T  calculate vGv susceptibility
   LVGVAPPL  =     F  apply vGv susceptibility instead of pGv for G=0

 Random number generation:
   RANDOM_GENERATOR = DEFAULT
   PCG_SEED         = not used


--------------------------------------------------------------------------------------------------------


 Static calculation
 charge density and potential will be updated during run
 spin polarized calculation
 Variant of blocked Davidson
 Davidson routine will perform the subspace rotation
 perform sub-space diagonalisation
    after iterative eigenvector-optimisation
 modified Broyden-mixing scheme, WC =      100.0
 initial mixing is a Kerker type mixing with AMIX =  0.4000 and BMIX =      1.0000
 Hartree-type preconditioning will be used
 using additional bands           50
 reciprocal scheme for non local part
 use partial core corrections
 calculate Harris-corrections to forces 
   (improved forces if not selfconsistent)
 use gradient corrections 
 use of overlap-Matrix (Vanderbilt PP)
 Fermi weights with tetrahedron method with Bloechl corrections


--------------------------------------------------------------------------------------------------------


  energy-cutoff  :      520.00
  volume of cell :      157.00
      direct lattice vectors                 reciprocal lattice vectors
     3.739361727  0.000000000  0.000000000     0.267425318  0.000000000  0.000000000
     0.000000000  3.739361727  0.000000000     0.000000000  0.267425318  0.000000000
     0.000000000  0.000000000 11.228059235     0.000000000  0.000000000  0.089062587

  length of vectors
     3.739361727  3.739361727 11.228059235     0.267425318  0.267425318  0.089062587


 
 k-points in units of 2pi/SCALE and weight: pymatgen with grid density = 8800 / numb
   0.00000000  0.00000000  0.00000000       0.001
   0.02057118  0.00000000  0.00000000       0.006
   0.04114236  0.00000000  0.00000000       0.006
   0.06171353  0.00000000  0.00000000       0.006
   0.08228471  0.00000000  0.00000000       0.006
   0.10285589  0.00000000  0.00000000       0.006
   0.12342707  0.00000000  0.00000000       0.006
   0.02057118  0.02057118  0.00000000       0.006
   0.04114236  0.02057118  0.00000000       0.012
   0.06171353  0.02057118  0.00000000       0.012
   0.08228471  0.02057118  0.00000000       0.012
   0.10285589  0.02057118  0.00000000       0.012
   0.12342707  0.02057118  0.00000000       0.012
   0.04114236  0.04114236  0.00000000       0.006
   0.06171353  0.04114236  0.00000000       0.012
   0.08228471  0.04114236  0.00000000       0.012
   0.10285589  0.04114236  0.00000000       0.012
   0.12342707  0.04114236  0.00000000       0.012
   0.06171353  0.06171353  0.00000000       0.006
   0.08228471  0.06171353  0.00000000       0.012
   0.10285589  0.06171353  0.00000000       0.012
   0.12342707  0.06171353  0.00000000       0.012
   0.08228471  0.08228471  0.00000000       0.006
   0.10285589  0.08228471  0.00000000       0.012
   0.12342707  0.08228471  0.00000000       0.012
   0.10285589  0.10285589  0.00000000       0.006
   0.12342707  0.10285589  0.00000000       0.012
   0.12342707  0.12342707  0.00000000       0.006
   0.00000000  0.00000000  0.02226565       0.003
   0.02057118  0.00000000  0.02226565       0.012
   0.04114236  0.00000000  0.02226565       0.012
   0.06171353  0.00000000  0.02226565       0.012
   0.08228471  0.00000000  0.02226565       0.012
   0.10285589  0.00000000  0.02226565       0.012
   0.12342707  0.00000000  0.02226565       0.012
   0.02057118  0.02057118  0.02226565       0.012
   0.04114236  0.02057118  0.02226565       0.024
   0.06171353  0.02057118  0.02226565       0.024
   0.08228471  0.02057118  0.02226565       0.024
   0.10285589  0.02057118  0.02226565       0.024
   0.12342707  0.02057118  0.02226565       0.024
   0.04114236  0.04114236  0.02226565       0.012
   0.06171353  0.04114236  0.02226565       0.024
   0.08228471  0.04114236  0.02226565       0.024
   0.10285589  0.04114236  0.02226565       0.024
   0.12342707  0.04114236  0.02226565       0.024
   0.06171353  0.06171353  0.02226565       0.012
   0.08228471  0.06171353  0.02226565       0.024
   0.10285589  0.06171353  0.02226565       0.024
   0.12342707  0.06171353  0.02226565       0.024
   0.08228471  0.08228471  0.02226565       0.012
   0.10285589  0.08228471  0.02226565       0.024
   0.12342707  0.08228471  0.02226565       0.024
   0.10285589  0.10285589  0.02226565       0.012
   0.12342707  0.10285589  0.02226565       0.024
   0.12342707  0.12342707  0.02226565       0.012
   0.00000000  0.00000000  0.04453129       0.001
   0.02057118  0.00000000  0.04453129       0.006
   0.04114236  0.00000000  0.04453129       0.006
   0.06171353  0.00000000  0.04453129       0.006
   0.08228471  0.00000000  0.04453129       0.006
   0.10285589  0.00000000  0.04453129       0.006
   0.12342707  0.00000000  0.04453129       0.006
   0.02057118  0.02057118  0.04453129       0.006
   0.04114236  0.02057118  0.04453129       0.012
   0.06171353  0.02057118  0.04453129       0.012
   0.08228471  0.02057118  0.04453129       0.012
   0.10285589  0.02057118  0.04453129       0.012
   0.12342707  0.02057118  0.04453129       0.012
   0.04114236  0.04114236  0.04453129       0.006
   0.06171353  0.04114236  0.04453129       0.012
   0.08228471  0.04114236  0.04453129       0.012
   0.10285589  0.04114236  0.04453129       0.012
   0.12342707  0.04114236  0.04453129       0.012
   0.06171353  0.06171353  0.04453129       0.006
   0.08228471  0.06171353  0.04453129       0.012
   0.10285589  0.06171353  0.04453129       0.012
   0.12342707  0.06171353  0.04453129       0.012
   0.08228471  0.08228471  0.04453129       0.006
   0.10285589  0.08228471  0.04453129       0.012
   0.12342707  0.08228471  0.04453129       0.012
   0.10285589  0.10285589  0.04453129       0.006
   0.12342707  0.10285589  0.04453129       0.012
   0.12342707  0.12342707  0.04453129       0.006
 
 k-points in reciprocal lattice and weights: pymatgen with grid density = 8800 / numb
   0.00000000  0.00000000  0.00000000       0.001
   0.07692308  0.00000000  0.00000000       0.006
   0.15384615  0.00000000  0.00000000       0.006
   0.23076923  0.00000000  0.00000000       0.006
   0.30769231  0.00000000  0.00000000       0.006
   0.38461538  0.00000000  0.00000000       0.006
   0.46153846  0.00000000  0.00000000       0.006
   0.07692308  0.07692308  0.00000000       0.006
   0.15384615  0.07692308  0.00000000       0.012
   0.23076923  0.07692308  0.00000000       0.012
   0.30769231  0.07692308  0.00000000       0.012
   0.38461538  0.07692308  0.00000000       0.012
   0.46153846  0.07692308  0.00000000       0.012
   0.15384615  0.15384615  0.00000000       0.006
   0.23076923  0.15384615  0.00000000       0.012
   0.30769231  0.15384615  0.00000000       0.012
   0.38461538  0.15384615  0.00000000       0.012
   0.46153846  0.15384615  0.00000000       0.012
   0.23076923  0.23076923  0.00000000       0.006
   0.30769231  0.23076923  0.00000000       0.012
   0.38461538  0.23076923  0.00000000       0.012
   0.46153846  0.23076923  0.00000000       0.012
   0.30769231  0.30769231  0.00000000       0.006
   0.38461538  0.30769231  0.00000000       0.012
   0.46153846  0.30769231  0.00000000       0.012
   0.38461538  0.38461538  0.00000000       0.006
   0.46153846  0.38461538  0.00000000       0.012
   0.46153846  0.46153846  0.00000000       0.006
   0.00000000  0.00000000  0.25000000       0.003
   0.07692308  0.00000000  0.25000000       0.012
   0.15384615  0.00000000  0.25000000       0.012
   0.23076923  0.00000000  0.25000000       0.012
   0.30769231  0.00000000  0.25000000       0.012
   0.38461538  0.00000000  0.25000000       0.012
   0.46153846  0.00000000  0.25000000       0.012
   0.07692308  0.07692308  0.25000000       0.012
   0.15384615  0.07692308  0.25000000       0.024
   0.23076923  0.07692308  0.25000000       0.024
   0.30769231  0.07692308  0.25000000       0.024
   0.38461538  0.07692308  0.25000000       0.024
   0.46153846  0.07692308  0.25000000       0.024
   0.15384615  0.15384615  0.25000000       0.012
   0.23076923  0.15384615  0.25000000       0.024
   0.30769231  0.15384615  0.25000000       0.024
   0.38461538  0.15384615  0.25000000       0.024
   0.46153846  0.15384615  0.25000000       0.024
   0.23076923  0.23076923  0.25000000       0.012
   0.30769231  0.23076923  0.25000000       0.024
   0.38461538  0.23076923  0.25000000       0.024
   0.46153846  0.23076923  0.25000000       0.024
   0.30769231  0.30769231  0.25000000       0.012
   0.38461538  0.30769231  0.25000000       0.024
   0.46153846  0.30769231  0.25000000       0.024
   0.38461538  0.38461538  0.25000000       0.012
   0.46153846  0.38461538  0.25000000       0.024
   0.46153846  0.46153846  0.25000000       0.012
   0.00000000  0.00000000  0.50000000       0.001
   0.07692308  0.00000000  0.50000000       0.006
   0.15384615  0.00000000  0.50000000       0.006
   0.23076923  0.00000000  0.50000000       0.006
   0.30769231  0.00000000  0.50000000       0.006
   0.38461538  0.00000000  0.50000000       0.006
   0.46153846  0.00000000  0.50000000       0.006
   0.07692308  0.07692308  0.50000000       0.006
   0.15384615  0.07692308  0.50000000       0.012
   0.23076923  0.07692308  0.50000000       0.012
   0.30769231  0.07692308  0.50000000       0.012
   0.38461538  0.07692308  0.50000000       0.012
   0.46153846  0.07692308  0.50000000       0.012
   0.15384615  0.15384615  0.50000000       0.006
   0.23076923  0.15384615  0.50000000       0.012
   0.30769231  0.15384615  0.50000000       0.012
   0.38461538  0.15384615  0.50000000       0.012
   0.46153846  0.15384615  0.50000000       0.012
   0.23076923  0.23076923  0.50000000       0.006
   0.30769231  0.23076923  0.50000000       0.012
   0.38461538  0.23076923  0.50000000       0.012
   0.46153846  0.23076923  0.50000000       0.012
   0.30769231  0.30769231  0.50000000       0.006
   0.38461538  0.30769231  0.50000000       0.012
   0.46153846  0.30769231  0.50000000       0.012
   0.38461538  0.38461538  0.50000000       0.006
   0.46153846  0.38461538  0.50000000       0.012
   0.46153846  0.46153846  0.50000000       0.006
 
 position of ions in fractional coordinates (direct lattice) 
   0.00000000  0.50000000  0.16661671
   0.00000000  0.50000000  0.50000000
   0.00000000  0.50000000  0.83338329
   0.50000000  0.50000000  0.00000000
   0.50000000  0.50000000  0.33319396
   0.50000000  0.50000000  0.66680604
   0.50000000  0.00000000  0.16661671
   0.50000000  0.00000000  0.50000000
   0.50000000  0.00000000  0.83338329
   0.00000000  0.00000000  0.00000000
   0.00000000  0.00000000  0.33328703
   0.00000000  0.00000000  0.66671297
 
 position of ions in cartesian coordinates  (Angst):
   0.00000000  1.86968086  1.87078226
   0.00000000  1.86968086  5.61402962
   0.00000000  1.86968086  9.35727697
   1.86968086  1.86968086  0.00000000
   1.86968086  1.86968086  3.74112153
   1.86968086  1.86968086  7.48693771
   1.86968086  0.00000000  1.87078226
   1.86968086  0.00000000  5.61402962
   1.86968086  0.00000000  9.35727697
   0.00000000  0.00000000  0.00000000
   0.00000000  0.00000000  3.74216654
   0.00000000  0.00000000  7.48589269
 


--------------------------------------------------------------------------------------------------------


 k-point     1 :   0.0000 0.0000 0.0000  plane waves:    4193
 k-point     2 :   0.0769 0.0000 0.0000  plane waves:    4180
 k-point     3 :   0.1538 0.0000 0.0000  plane waves:    4180
 k-point     4 :   0.2308 0.0000 0.0000  plane waves:    4212
 k-point     5 :   0.3077 0.0000 0.0000  plane waves:    4218
 k-point     6 :   0.3846 0.0000 0.0000  plane waves:    4218
 k-point     7 :   0.4615 0.0000 0.0000  plane waves:    4220
 k-point     8 :   0.0769 0.0769 0.0000  plane waves:    4183
 k-point     9 :   0.1538 0.0769 0.0000  plane waves:    4194
 k-point    10 :   0.2308 0.0769 0.0000  plane waves:    4206
 k-point    11 :   0.3077 0.0769 0.0000  plane waves:    4221
 k-point    12 :   0.3846 0.0769 0.0000  plane waves:    4216
 k-point    13 :   0.4615 0.0769 0.0000  plane waves:    4246
 k-point    14 :   0.1538 0.1538 0.0000  plane waves:    4222
 k-point    15 :   0.2308 0.1538 0.0000  plane waves:    4207
 k-point    16 :   0.3077 0.1538 0.0000  plane waves:    4232
 k-point    17 :   0.3846 0.1538 0.0000  plane waves:    4240
 k-point    18 :   0.4615 0.1538 0.0000  plane waves:    4242
 k-point    19 :   0.2308 0.2308 0.0000  plane waves:    4250
 k-point    20 :   0.3077 0.2308 0.0000  plane waves:    4235
 k-point    21 :   0.3846 0.2308 0.0000  plane waves:    4244
 k-point    22 :   0.4615 0.2308 0.0000  plane waves:    4241
 k-point    23 :   0.3077 0.3077 0.0000  plane waves:    4242
 k-point    24 :   0.3846 0.3077 0.0000  plane waves:    4242
 k-point    25 :   0.4615 0.3077 0.0000  plane waves:    4237
 k-point    26 :   0.3846 0.3846 0.0000  plane waves:    4268
 k-point    27 :   0.4615 0.3846 0.0000  plane waves:    4235
 k-point    28 :   0.4615 0.4615 0.0000  plane waves:    4226
 k-point    29 :   0.0000 0.0000 0.2500  plane waves:    4190
 k-point    30 :   0.0769 0.0000 0.2500  plane waves:    4191
 k-point    31 :   0.1538 0.0000 0.2500  plane waves:    4196
 k-point    32 :   0.2308 0.0000 0.2500  plane waves:    4217
 k-point    33 :   0.3077 0.0000 0.2500  plane waves:    4206
 k-point    34 :   0.3846 0.0000 0.2500  plane waves:    4224
 k-point    35 :   0.4615 0.0000 0.2500  plane waves:    4240
 k-point    36 :   0.0769 0.0769 0.2500  plane waves:    4197
 k-point    37 :   0.1538 0.0769 0.2500  plane waves:    4211
 k-point    38 :   0.2308 0.0769 0.2500  plane waves:    4210
 k-point    39 :   0.3077 0.0769 0.2500  plane waves:    4207
 k-point    40 :   0.3846 0.0769 0.2500  plane waves:    4230
 k-point    41 :   0.4615 0.0769 0.2500  plane waves:    4231
 k-point    42 :   0.1538 0.1538 0.2500  plane waves:    4222
 k-point    43 :   0.2308 0.1538 0.2500  plane waves:    4220
 k-point    44 :   0.3077 0.1538 0.2500  plane waves:    4223
 k-point    45 :   0.3846 0.1538 0.2500  plane waves:    4227
 k-point    46 :   0.4615 0.1538 0.2500  plane waves:    4248
 k-point    47 :   0.2308 0.2308 0.2500  plane waves:    4216
 k-point    48 :   0.3077 0.2308 0.2500  plane waves:    4237
 k-point    49 :   0.3846 0.2308 0.2500  plane waves:    4235
 k-point    50 :   0.4615 0.2308 0.2500  plane waves:    4240
 k-point    51 :   0.3077 0.3077 0.2500  plane waves:    4253
 k-point    52 :   0.3846 0.3077 0.2500  plane waves:    4246
 k-point    53 :   0.4615 0.3077 0.2500  plane waves:    4243
 k-point    54 :   0.3846 0.3846 0.2500  plane waves:    4241
 k-point    55 :   0.4615 0.3846 0.2500  plane waves:    4242
 k-point    56 :   0.4615 0.4615 0.2500  plane waves:    4241
 k-point    57 :   0.0000 0.0000 0.5000  plane waves:    4210
 k-point    58 :   0.0769 0.0000 0.5000  plane waves:    4214
 k-point    59 :   0.1538 0.0000 0.5000  plane waves:    4226
 k-point    60 :   0.2308 0.0000 0.5000  plane waves:    4200
 k-point    61 :   0.3077 0.0000 0.5000  plane waves:    4206
 k-point    62 :   0.3846 0.0000 0.5000  plane waves:    4220
 k-point    63 :   0.4615 0.0000 0.5000  plane waves:    4228
 k-point    64 :   0.0769 0.0769 0.5000  plane waves:    4212
 k-point    65 :   0.1538 0.0769 0.5000  plane waves:    4226
 k-point    66 :   0.2308 0.0769 0.5000  plane waves:    4216
 k-point    67 :   0.3077 0.0769 0.5000  plane waves:    4208
 k-point    68 :   0.3846 0.0769 0.5000  plane waves:    4230
 k-point    69 :   0.4615 0.0769 0.5000  plane waves:    4244
 k-point    70 :   0.1538 0.1538 0.5000  plane waves:    4222
 k-point    71 :   0.2308 0.1538 0.5000  plane waves:    4224
 k-point    72 :   0.3077 0.1538 0.5000  plane waves:    4210
 k-point    73 :   0.3846 0.1538 0.5000  plane waves:    4234
 k-point    74 :   0.4615 0.1538 0.5000  plane waves:    4246
 k-point    75 :   0.2308 0.2308 0.5000  plane waves:    4228
 k-point    76 :   0.3077 0.2308 0.5000  plane waves:    4238
 k-point    77 :   0.3846 0.2308 0.5000  plane waves:    4236
 k-point    78 :   0.4615 0.2308 0.5000  plane waves:    4250
 k-point    79 :   0.3077 0.3077 0.5000  plane waves:    4248
 k-point    80 :   0.3846 0.3077 0.5000  plane waves:    4246
 k-point    81 :   0.4615 0.3077 0.5000  plane waves:    4246
 k-point    82 :   0.3846 0.3846 0.5000  plane waves:    4242
 k-point    83 :   0.4615 0.3846 0.5000  plane waves:    4228
 k-point    84 :   0.4615 0.4615 0.5000  plane waves:    4228

 maximum and minimum number of plane-waves per node :      4268     4180

 maximum number of plane-waves:      4268
 maximum index in each direction: 
   IXMAX=    6   IYMAX=    6   IZMAX=   20
   IXMIN=   -7   IYMIN=   -7   IZMIN=  -21


 serial   3D FFT for wavefunctions
 parallel 3D FFT for charge:
    minimum data exchange during FFTs selected (reduces bandwidth)


 total amount of memory used by VASP MPI-rank0   191145. kBytes
=======================================================================

   base      :      30000. kBytes
   nonl-proj :     104558. kBytes
   fftplans  :        888. kBytes
   grid      :       6813. kBytes
   one-center:        373. kBytes
   wavefun   :      48513. kBytes
 
     INWAV:  cpu time      0.0001: real time      0.0001
 Broyden mixing: mesh for mixing (old mesh)
   NGX = 13   NGY = 13   NGZ = 41
  (NGX  = 56   NGY  = 56   NGZ  =168)
  gives a total of   6929 points

 initial charge density was supplied:
 charge density of overlapping atoms calculated
 number of electron     156.0000000 magnetization      25.6550000
 keeping initial charge density in first step


--------------------------------------------------------------------------------------------------------


 Maximum index for augmentation-charges         1033 (set IRDMAX)


--------------------------------------------------------------------------------------------------------


 First call to EWALD:  gamma=   0.329
 Maximum number of real-space cells 4x 4x 2
 Maximum number of reciprocal cells 2x 2x 5

    FEWALD:  cpu time      0.0022: real time      0.0022


--------------------------------------- Ionic step        1  -------------------------------------------




--------------------------------------- Iteration      1(   1)  ---------------------------------------


    POTLOK:  cpu time      0.0455: real time      0.0496
    SETDIJ:  cpu time      0.0128: real time      0.0131
     EDDAV:  cpu time      5.8760: real time      5.9190
 BZINTS: Fermi energy:   23.126365;  156.000000 electrons
         Band energy: 0.516272E+03;  BLOECHL correction:   -0.048187
       DOS:  cpu time      0.1276: real time      0.1292
    --------------------------------------------
      LOOP:  cpu time      6.0619: real time      6.1110

 eigenvalue-minimisations  : 43008
 total energy-change (2. order) : 0.1772409E+04  (-0.8435635E+04)
 number of electron     156.0000000 magnetization      25.6550000
 augmentation part      156.0000000 magnetization      25.6550000

 Free energy of the ion-electron system (eV)
  ---------------------------------------------------
  alpha Z        PSCENC =      1084.01356410
  Ewald energy   TEWEN  =    -18053.81266304
  -Hartree energ DENC   =     -6011.45401859
  -exchange      EXHF   =         0.00000000
  -V(xc)+E(xc)   XCENC  =       657.19134467
  PAW double counting   =     20093.72410987   -20817.62844216
  entropy T*S    EENTRO =         0.00000000
  eigenvalues    EBANDS =       516.27183309
  atomic energy  EATOM  =     24304.10294433
  Solvation  Ediel_sol  =         0.00000000
  ---------------------------------------------------
  free energy    TOTEN  =      1772.40867226 eV

  energy without entropy =     1772.40867226  energy(sigma->0) =     1772.40867226


--------------------------------------------------------------------------------------------------------




--------------------------------------- Iteration      1(   2)  ---------------------------------------


     EDDAV:  cpu time      5.9035: real time      5.9469
 BZINTS: Fermi energy:   12.050442;  156.000000 electrons
         Band energy:-0.124973E+04;  BLOECHL correction:   -0.028007
       DOS:  cpu time      0.1286: real time      0.1295
    --------------------------------------------
      LOOP:  cpu time      6.0320: real time      6.0764

 eigenvalue-minimisations  : 43008
 total energy-change (2. order) :-0.1765999E+04  (-0.1674072E+04)
 number of electron     156.0000000 magnetization      25.6550000
 augmentation part      156.0000000 magnetization      25.6550000

 Free energy of the ion-electron system (eV)
  ---------------------------------------------------
  alpha Z        PSCENC =      1084.01356410
  Ewald energy   TEWEN  =    -18053.81266304
  -Hartree energ DENC   =     -6011.45401859
  -exchange      EXHF   =         0.00000000
  -V(xc)+E(xc)   XCENC  =       657.19134467
  PAW double counting   =     20093.72410987   -20817.62844216
  entropy T*S    EENTRO =         0.00000000
  eigenvalues    EBANDS =     -1249.72711936
  atomic energy  EATOM  =     24304.10294433
  Solvation  Ediel_sol  =         0.00000000
  ---------------------------------------------------
  free energy    TOTEN  =         6.40971981 eV

  energy without entropy =        6.40971981  energy(sigma->0) =        6.40971981


--------------------------------------------------------------------------------------------------------




--------------------------------------- Iteration      1(   3)  ---------------------------------------


     EDDAV:  cpu time      7.0362: real time      7.0864
 BZINTS: Fermi energy:   11.423419;  156.000000 electrons
         Band energy:-0.135870E+04;  BLOECHL correction:   -0.052111
       DOS:  cpu time      0.1312: real time      0.1322
    --------------------------------------------
      LOOP:  cpu time      7.1675: real time      7.2185

 eigenvalue-minimisations  : 50848
 total energy-change (2. order) :-0.1089756E+03  (-0.1072727E+03)
 number of electron     156.0000000 magnetization      25.6550000
 augmentation part      156.0000000 magnetization      25.6550000

 Free energy of the ion-electron system (eV)
  ---------------------------------------------------
  alpha Z        PSCENC =      1084.01356410
  Ewald energy   TEWEN  =    -18053.81266304
  -Hartree energ DENC   =     -6011.45401859
  -exchange      EXHF   =         0.00000000
  -V(xc)+E(xc)   XCENC  =       657.19134467
  PAW double counting   =     20093.72410987   -20817.62844216
  entropy T*S    EENTRO =         0.00000000
  eigenvalues    EBANDS =     -1358.70272806
  atomic energy  EATOM  =     24304.10294433
  Solvation  Ediel_sol  =         0.00000000
  ---------------------------------------------------
  free energy    TOTEN  =      -102.56588889 eV

  energy without entropy =     -102.56588889  energy(sigma->0) =     -102.56588889


--------------------------------------------------------------------------------------------------------




--------------------------------------- Iteration      1(   4)  ---------------------------------------


     EDDAV:  cpu time      6.2205: real time      6.2678
 BZINTS: Fermi energy:   11.418444;  156.000000 electrons
         Band energy:-0.136030E+04;  BLOECHL correction:   -0.052272
       DOS:  cpu time      0.1300: real time      0.1310
    --------------------------------------------
      LOOP:  cpu time      6.3505: real time      6.3988

 eigenvalue-minimisations  : 45632
 total energy-change (2. order) :-0.1598178E+01  (-0.1597690E+01)
 number of electron     156.0000000 magnetization      25.6550000
 augmentation part      156.0000000 magnetization      25.6550000

 Free energy of the ion-electron system (eV)
  ---------------------------------------------------
  alpha Z        PSCENC =      1084.01356410
  Ewald energy   TEWEN  =    -18053.81266304
  -Hartree energ DENC   =     -6011.45401859
  -exchange      EXHF   =         0.00000000
  -V(xc)+E(xc)   XCENC  =       657.19134467
  PAW double counting   =     20093.72410987   -20817.62844216
  entropy T*S    EENTRO =         0.00000000
  eigenvalues    EBANDS =     -1360.30090573
  atomic energy  EATOM  =     24304.10294433
  Solvation  Ediel_sol  =         0.00000000
  ---------------------------------------------------
  free energy    TOTEN  =      -104.16406656 eV

  energy without entropy =     -104.16406656  energy(sigma->0) =     -104.16406656


--------------------------------------------------------------------------------------------------------




--------------------------------------- Iteration      1(   5)  ---------------------------------------


     EDDAV:  cpu time      7.4499: real time      7.5060
 BZINTS: Fermi energy:   11.418396;  156.000000 electrons
         Band energy:-0.136033E+04;  BLOECHL correction:   -0.052272
       DOS:  cpu time      0.1291: real time      0.1300
    CHARGE:  cpu time      0.1531: real time      0.1544
    MIXING:  cpu time      0.0054: real time      0.0054
    --------------------------------------------
      LOOP:  cpu time      7.7374: real time      7.7958

 eigenvalue-minimisations  : 52928
 total energy-change (2. order) :-0.3106459E-01  (-0.3106356E-01)
 number of electron     156.0000319 magnetization      24.3328737
 augmentation part       79.4195255 magnetization      17.8695681

 Broyden mixing:
  rms(total) = 0.38023E+01    rms(broyden)= 0.38015E+01
  rms(prec ) = 0.42705E+01
  weight for this iteration     100.00

 Free energy of the ion-electron system (eV)
  ---------------------------------------------------
  alpha Z        PSCENC =      1084.01356410
  Ewald energy   TEWEN  =    -18053.81266304
  -Hartree energ DENC   =     -6011.45401859
  -exchange      EXHF   =         0.00000000
  -V(xc)+E(xc)   XCENC  =       657.19134467
  PAW double counting   =     20093.72410987   -20817.62844216
  entropy T*S    EENTRO =         0.00000000
  eigenvalues    EBANDS =     -1360.33197031
  atomic energy  EATOM  =     24304.10294433
  Solvation  Ediel_sol  =         0.00000000
  ---------------------------------------------------
  free energy    TOTEN  =      -104.19513114 eV

  energy without entropy =     -104.19513114  energy(sigma->0) =     -104.19513114


--------------------------------------------------------------------------------------------------------




--------------------------------------- Iteration      1(   6)  ---------------------------------------


    POTLOK:  cpu time      0.0428: real time      0.0440
    SETDIJ:  cpu time      0.0084: real time      0.0085
     EDDAV:  cpu time      6.6967: real time      6.7428
 BZINTS: Fermi energy:    8.838853;  156.000000 electrons
         Band energy:-0.177570E+04;  BLOECHL correction:   -0.071228
       DOS:  cpu time      0.1384: real time      0.1393
    CHARGE:  cpu time      0.1464: real time      0.1472
    MIXING:  cpu time      0.0039: real time      0.0040
    --------------------------------------------
      LOOP:  cpu time      7.0366: real time      7.0858

 eigenvalue-minimisations  : 48640
 total energy-change (2. order) : 0.3150058E+01  (-0.6436388E+01)
 number of electron     156.0000350 magnetization      23.7056191
 augmentation part       88.0648356 magnetization      18.3415916

 Broyden mixing:
  rms(total) = 0.35704E+01    rms(broyden)= 0.35698E+01
  rms(prec ) = 0.43471E+01
  weight for this iteration     100.00

 eigenvalues of (default mixing * dielectric matrix)
  average eigenvalue GAMMA=   0.4278
  0.4278

 Free energy of the ion-electron system (eV)
  ---------------------------------------------------
  alpha Z        PSCENC =      1084.01356410
  Ewald energy   TEWEN  =    -18053.81266304
  -Hartree energ DENC   =     -5598.52269672
  -exchange      EXHF   =         0.00000000
  -V(xc)+E(xc)   XCENC  =       639.76125016
  PAW double counting   =     20430.72501606   -21131.60903775
  entropy T*S    EENTRO =         0.00000000
  eigenvalues    EBANDS =     -1775.70345037
  atomic energy  EATOM  =     24304.10294433
  Solvation  Ediel_sol  =         0.00000000
  ---------------------------------------------------
  free energy    TOTEN  =      -101.04507323 eV

  energy without entropy =     -101.04507323  energy(sigma->0) =     -101.04507323


--------------------------------------------------------------------------------------------------------




--------------------------------------- Iteration      1(   7)  ---------------------------------------


    POTLOK:  cpu time      0.0383: real time      0.0441
    SETDIJ:  cpu time      0.0074: real time      0.0074
     EDDAV:  cpu time      6.7632: real time      6.8088
 BZINTS: Fermi energy:    9.986561;  156.000000 electrons
         Band energy:-0.158830E+04;  BLOECHL correction:   -0.043707
       DOS:  cpu time      0.1377: real time      0.1392
    CHARGE:  cpu time      0.1462: real time      0.1473
    MIXING:  cpu time      0.0029: real time      0.0030
    --------------------------------------------
      LOOP:  cpu time      7.0956: real time      7.1498

 eigenvalue-minimisations  : 49536
 total energy-change (2. order) : 0.5361186E+01  (-0.8188002E+01)
 number of electron     156.0000326 magnetization      23.7526706
 augmentation part       83.7975068 magnetization      17.0352391

 Broyden mixing:
  rms(total) = 0.20405E+01    rms(broyden)= 0.20403E+01
  rms(prec ) = 0.23324E+01
  weight for this iteration     100.00

 eigenvalues of (default mixing * dielectric matrix)
  average eigenvalue GAMMA=   0.6246
  0.9273  0.3219

 Free energy of the ion-electron system (eV)
  ---------------------------------------------------
  alpha Z        PSCENC =      1084.01356410
  Ewald energy   TEWEN  =    -18053.81266304
  -Hartree energ DENC   =     -5753.56386962
  -exchange      EXHF   =         0.00000000
  -V(xc)+E(xc)   XCENC  =       645.02772857
  PAW double counting   =     21039.72834171   -21772.87944115
  entropy T*S    EENTRO =         0.00000000
  eigenvalues    EBANDS =     -1588.30049259
  atomic energy  EATOM  =     24304.10294433
  Solvation  Ediel_sol  =         0.00000000
  ---------------------------------------------------
  free energy    TOTEN  =       -95.68388769 eV

  energy without entropy =      -95.68388769  energy(sigma->0) =      -95.68388769


--------------------------------------------------------------------------------------------------------




--------------------------------------- Iteration      1(   8)  ---------------------------------------


    POTLOK:  cpu time      0.0430: real time      0.0438
    SETDIJ:  cpu time      0.0084: real time      0.0085
     EDDAV:  cpu time      7.4322: real time      7.4808
 BZINTS: Fermi energy:    9.766388;  156.000000 electrons
         Band energy:-0.162418E+04;  BLOECHL correction:   -0.038347
       DOS:  cpu time      0.1360: real time      0.1373
    CHARGE:  cpu time      0.1457: real time      0.1465
    MIXING:  cpu time      0.0019: real time      0.0019
    --------------------------------------------
      LOOP:  cpu time      7.7671: real time      7.8187

 eigenvalue-minimisations  : 53088
 total energy-change (2. order) : 0.9141996E+00  (-0.8616614E+00)
 number of electron     156.0000330 magnetization      23.8570387
 augmentation part       84.6476150 magnetization      17.6721885

 Broyden mixing:
  rms(total) = 0.15059E+01    rms(broyden)= 0.15058E+01
  rms(prec ) = 0.23292E+01
  weight for this iteration     100.00

 eigenvalues of (default mixing * dielectric matrix)
  average eigenvalue GAMMA=   0.6101
  1.0053  0.4124  0.4124

 Free energy of the ion-electron system (eV)
  ---------------------------------------------------
  alpha Z        PSCENC =      1084.01356410
  Ewald energy   TEWEN  =    -18053.81266304
  -Hartree energ DENC   =     -5707.31871378
  -exchange      EXHF   =         0.00000000
  -V(xc)+E(xc)   XCENC  =       645.16098182
  PAW double counting   =     21464.13255298   -22206.86913059
  entropy T*S    EENTRO =         0.00000000
  eigenvalues    EBANDS =     -1624.17922394
  atomic energy  EATOM  =     24304.10294433
  Solvation  Ediel_sol  =         0.00000000
  ---------------------------------------------------
  free energy    TOTEN  =       -94.76968812 eV

  energy without entropy =      -94.76968812  energy(sigma->0) =      -94.76968812


--------------------------------------------------------------------------------------------------------




--------------------------------------- Iteration      1(   9)  ---------------------------------------


    POTLOK:  cpu time      0.0431: real time      0.0439
    SETDIJ:  cpu time      0.0080: real time      0.0081
     EDDAV:  cpu time      7.3806: real time      7.4284
 BZINTS: Fermi energy:    9.746861;  156.000000 electrons
         Band energy:-0.163009E+04;  BLOECHL correction:   -0.037844
       DOS:  cpu time      0.1359: real time      0.1369
    CHARGE:  cpu time      0.1457: real time      0.1466
    MIXING:  cpu time      0.0019: real time      0.0019
    --------------------------------------------
      LOOP:  cpu time      7.7153: real time      7.7658

 eigenvalue-minimisations  : 52352
 total energy-change (2. order) : 0.4773467E-02  (-0.1333727E+01)
 number of electron     156.0000332 magnetization      24.2756887
 augmentation part       84.7597596 magnetization      18.2354946

 Broyden mixing:
  rms(total) = 0.15931E+01    rms(broyden)= 0.15928E+01
  rms(prec ) = 0.25598E+01
  weight for this iteration     100.00

 eigenvalues of (default mixing * dielectric matrix)
  average eigenvalue GAMMA=   0.7236
  1.6156  0.8101  0.3498  0.1188

 Free energy of the ion-electron system (eV)
  ---------------------------------------------------
  alpha Z        PSCENC =      1084.01356410
  Ewald energy   TEWEN  =    -18053.81266304
  -Hartree energ DENC   =     -5699.21894250
  -exchange      EXHF   =         0.00000000
  -V(xc)+E(xc)   XCENC  =       645.16197649
  PAW double counting   =     21554.96604622   -22299.88868986
  entropy T*S    EENTRO =         0.00000000
  eigenvalues    EBANDS =     -1630.08915039
  atomic energy  EATOM  =     24304.10294433
  Solvation  Ediel_sol  =         0.00000000
  ---------------------------------------------------
  free energy    TOTEN  =       -94.76491466 eV

  energy without entropy =      -94.76491466  energy(sigma->0) =      -94.76491466


--------------------------------------------------------------------------------------------------------




--------------------------------------- Iteration      1(  10)  ---------------------------------------


    POTLOK:  cpu time      0.0441: real time      0.0450
    SETDIJ:  cpu time      0.0083: real time      0.0083
     EDDAV:  cpu time      7.1573: real time      7.2040
 BZINTS: Fermi energy:    9.592148;  156.000000 electrons
         Band energy:-0.164492E+04;  BLOECHL correction:   -0.057638
       DOS:  cpu time      0.1353: real time      0.1368
    CHARGE:  cpu time      0.2083: real time      0.2095
    MIXING:  cpu time      0.0020: real time      0.0020
    --------------------------------------------
      LOOP:  cpu time      7.5553: real time      7.6055

 eigenvalue-minimisations  : 51712
 total energy-change (2. order) : 0.1210215E+01  (-0.6682427E+00)
 number of electron     156.0000333 magnetization      24.5735112
 augmentation part       85.0963741 magnetization      18.7585047

 Broyden mixing:
  rms(total) = 0.43615E+00    rms(broyden)= 0.43579E+00
  rms(prec ) = 0.50073E+00
  weight for this iteration     100.00

 eigenvalues of (default mixing * dielectric matrix)
  average eigenvalue GAMMA=   0.7479
  1.8297  0.7926  0.6321  0.3674  0.1177

 Free energy of the ion-electron system (eV)
  ---------------------------------------------------
  alpha Z        PSCENC =      1084.01356410
  Ewald energy   TEWEN  =    -18053.81266304
  -Hartree energ DENC   =     -5674.38596702
  -exchange      EXHF   =         0.00000000
  -V(xc)+E(xc)   XCENC  =       645.09649825
  PAW double counting   =     21900.75471162   -22654.40763386
  entropy T*S    EENTRO =         0.00000000
  eigenvalues    EBANDS =     -1644.91615402
  atomic energy  EATOM  =     24304.10294433
  Solvation  Ediel_sol  =         0.00000000
  ---------------------------------------------------
  free energy    TOTEN  =       -93.55469964 eV

  energy without entropy =      -93.55469964  energy(sigma->0) =      -93.55469964


--------------------------------------------------------------------------------------------------------




--------------------------------------- Iteration      1(  11)  ---------------------------------------


    POTLOK:  cpu time      0.0431: real time      0.0440
    SETDIJ:  cpu time      0.0080: real time      0.0081
     EDDAV:  cpu time      6.8830: real time      6.9300
 BZINTS: Fermi energy:    9.619321;  156.000000 electrons
         Band energy:-0.164236E+04;  BLOECHL correction:   -0.052425
       DOS:  cpu time      0.1359: real time      0.1368
    CHARGE:  cpu time      0.1430: real time      0.1439
    MIXING:  cpu time      0.0020: real time      0.0020
    --------------------------------------------
      LOOP:  cpu time      7.2149: real time      7.2647

 eigenvalue-minimisations  : 50624
 total energy-change (2. order) :-0.2699717E+00  (-0.1513758E+00)
 number of electron     156.0000332 magnetization      24.6710564
 augmentation part       85.0244738 magnetization      18.8526135

 Broyden mixing:
  rms(total) = 0.94584E+00    rms(broyden)= 0.94577E+00
  rms(prec ) = 0.11695E+01
  weight for this iteration     100.00

 eigenvalues of (default mixing * dielectric matrix)
  average eigenvalue GAMMA=   0.6576
  1.8770  0.7207  0.7207  0.3665  0.1171  0.1437

 Free energy of the ion-electron system (eV)
  ---------------------------------------------------
  alpha Z        PSCENC =      1084.01356410
  Ewald energy   TEWEN  =    -18053.81266304
  -Hartree energ DENC   =     -5672.94455953
  -exchange      EXHF   =         0.00000000
  -V(xc)+E(xc)   XCENC  =       645.23251738
  PAW double counting   =     22047.75861533   -22805.81685328
  entropy T*S    EENTRO =         0.00000000
  eigenvalues    EBANDS =     -1642.35823661
  atomic energy  EATOM  =     24304.10294433
  Solvation  Ediel_sol  =         0.00000000
  ---------------------------------------------------
  free energy    TOTEN  =       -93.82467132 eV

  energy without entropy =      -93.82467132  energy(sigma->0) =      -93.82467132


--------------------------------------------------------------------------------------------------------




--------------------------------------- Iteration      1(  12)  ---------------------------------------


    POTLOK:  cpu time      0.0438: real time      0.0533
    SETDIJ:  cpu time      0.0083: real time      0.0084
     EDDAV:  cpu time      6.7973: real time      6.8429
 BZINTS: Fermi energy:    9.624681;  156.000000 electrons
         Band energy:-0.164146E+04;  BLOECHL correction:   -0.059865
       DOS:  cpu time      0.1370: real time      0.1380
    CHARGE:  cpu time      0.1453: real time      0.1464
    MIXING:  cpu time      0.0019: real time      0.0019
    --------------------------------------------
      LOOP:  cpu time      7.1337: real time      7.1908

 eigenvalue-minimisations  : 49824
 total energy-change (2. order) : 0.3105982E+00  (-0.9055589E-01)
 number of electron     156.0000332 magnetization      25.0128105
 augmentation part       85.0005390 magnetization      19.1655348

 Broyden mixing:
  rms(total) = 0.21007E+00    rms(broyden)= 0.20995E+00
  rms(prec ) = 0.22162E+00
  weight for this iteration     100.00

 eigenvalues of (default mixing * dielectric matrix)
  average eigenvalue GAMMA=   0.7779
  2.2494  0.9704  0.9704  0.6167  0.3658  0.1178  0.1551

 Free energy of the ion-electron system (eV)
  ---------------------------------------------------
  alpha Z        PSCENC =      1084.01356410
  Ewald energy   TEWEN  =    -18053.81266304
  -Hartree energ DENC   =     -5672.26988202
  -exchange      EXHF   =         0.00000000
  -V(xc)+E(xc)   XCENC  =       645.21869422
  PAW double counting   =     22092.74860962   -22852.05404237
  entropy T*S    EENTRO =         0.00000000
  eigenvalues    EBANDS =     -1641.46129798
  atomic energy  EATOM  =     24304.10294433
  Solvation  Ediel_sol  =         0.00000000
  ---------------------------------------------------
  free energy    TOTEN  =       -93.51407314 eV

  energy without entropy =      -93.51407314  energy(sigma->0) =      -93.51407314


--------------------------------------------------------------------------------------------------------




--------------------------------------- Iteration      1(  13)  ---------------------------------------


    POTLOK:  cpu time      0.0431: real time      0.0440
    SETDIJ:  cpu time      0.0079: real time      0.0080
     EDDAV:  cpu time      6.8387: real time      6.8846
 BZINTS: Fermi energy:    9.624651;  156.000000 electrons
         Band energy:-0.164264E+04;  BLOECHL correction:   -0.058329
       DOS:  cpu time      0.1368: real time      0.1377
    CHARGE:  cpu time      0.1442: real time      0.1455
    MIXING:  cpu time      0.0020: real time      0.0020
    --------------------------------------------
      LOOP:  cpu time      7.1727: real time      7.2217

 eigenvalue-minimisations  : 50144
 total energy-change (2. order) :-0.7035820E-01  (-0.2319932E-01)
 number of electron     156.0000332 magnetization      25.1203880
 augmentation part       85.0092214 magnetization      19.2133145

 Broyden mixing:
  rms(total) = 0.38277E+00    rms(broyden)= 0.38274E+00
  rms(prec ) = 0.47866E+00
  weight for this iteration     100.00

 eigenvalues of (default mixing * dielectric matrix)
  average eigenvalue GAMMA=   0.7470
  2.3963  1.0523  1.0523  0.6346  0.3653  0.1176  0.1984  0.1593

 Free energy of the ion-electron system (eV)
  ---------------------------------------------------
  alpha Z        PSCENC =      1084.01356410
  Ewald energy   TEWEN  =    -18053.81266304
  -Hartree energ DENC   =     -5668.68837879
  -exchange      EXHF   =         0.00000000
  -V(xc)+E(xc)   XCENC  =       645.08841033
  PAW double counting   =     22198.26164174   -22959.90869153
  entropy T*S    EENTRO =         0.00000000
  eigenvalues    EBANDS =     -1642.64125847
  atomic energy  EATOM  =     24304.10294433
  Solvation  Ediel_sol  =         0.00000000
  ---------------------------------------------------
  free energy    TOTEN  =       -93.58443134 eV

  energy without entropy =      -93.58443134  energy(sigma->0) =      -93.58443134


--------------------------------------------------------------------------------------------------------




--------------------------------------- Iteration      1(  14)  ---------------------------------------


    POTLOK:  cpu time      0.0435: real time      0.0444
    SETDIJ:  cpu time      0.0084: real time      0.0084
     EDDAV:  cpu time      6.9046: real time      6.9506
 BZINTS: Fermi energy:    9.625680;  156.000000 electrons
[...]
    113      24.3132      0.00000
    114      24.7993      0.00000
    115      24.8032      0.00000
    116      25.1309      0.00000
    117      25.1354      0.00000
    118      25.9929      0.00000
    119      25.9946      0.00000
    120      27.1262      0.00000
    121      27.1302      0.00000
    122      27.1819      0.00000
    123      27.5625      0.00000
    124      28.5186      0.00000
    125      28.5186      0.00000
    126      28.9433      0.00000
    127      28.9435      0.00000
    128      29.5641      0.00000


--------------------------------------------------------------------------------------------------------


 soft charge-density along one line, spin component           1
         0         1         2         3         4         5         6         7         8         9
 total charge-density along one line
 
 soft charge-density along one line, spin component           2
         0         1         2         3         4         5         6         7         8         9
 total charge-density along one line
 
 pseudopotential strength for first ion, spin component:           1
-45.210  -0.000  -0.000   7.712   0.000   0.000  -0.000  -0.000
 -0.000 -45.204  -0.000   0.000   7.710   0.000   0.000   0.000
 -0.000  -0.000 -45.101   0.000   0.000   7.667   0.000   0.000
  7.712   0.000   0.000   5.611   0.000   0.000  -0.000   0.000
  0.000   7.710   0.000   0.000   5.611   0.000  -0.000  -0.000
  0.000   0.000   7.667   0.000   0.000   5.619  -0.000  -0.000
 -0.000   0.000   0.000  -0.000  -0.000  -0.000  -2.240  -0.000
 -0.000   0.000   0.000   0.000  -0.000  -0.000  -0.000  -2.318
 -0.000  -0.000   0.000   0.000   0.000  -0.000   0.000  -0.000
  0.000  -0.000  -0.000  -0.000   0.000   0.000  -0.000  -0.000
 -0.000  -0.000   0.000   0.000   0.000   0.000   0.000   0.000
 -0.000   0.000   0.000   0.000  -0.000  -0.000  -2.752  -0.000
 -0.000   0.000   0.000   0.000  -0.000  -0.000  -0.000  -2.828
 -0.000  -0.000  -0.000   0.000   0.000  -0.000   0.000  -0.000
  0.000   0.000  -0.000  -0.000   0.000   0.000  -0.000  -0.000
 -0.000  -0.000  -0.000   0.000   0.000  -0.000   0.000   0.000
 -0.000   0.000   0.000  -0.000  -0.000  -0.000   0.000   0.000
 -0.000   0.000   0.000  -0.000  -0.000   0.000   0.000   0.000
 pseudopotential strength for first ion, spin component:           2
-42.846  -0.000  -0.000   6.717   0.000   0.000   0.000  -0.000
 -0.000 -42.844  -0.000   0.000   6.717   0.000   0.000   0.000
 -0.000  -0.000 -42.804   0.000   0.000   6.699   0.000   0.000
  6.717   0.000   0.000   5.890   0.000   0.000   0.000   0.000
  0.000   6.717   0.000   0.000   5.890   0.000  -0.000  -0.000
  0.000   0.000   6.699   0.000   0.000   5.894  -0.000  -0.000
  0.000   0.000   0.000   0.000  -0.000  -0.000  -0.370  -0.000
 -0.000   0.000   0.000   0.000  -0.000  -0.000  -0.000  -0.390
 -0.000  -0.000   0.000   0.000   0.000  -0.000   0.000  -0.000
  0.000  -0.000  -0.000  -0.000   0.000   0.000  -0.000  -0.000
 -0.000   0.000  -0.000   0.000  -0.000   0.000   0.000   0.000
 -0.000   0.000   0.000  -0.000  -0.000  -0.000  -0.912  -0.000
 -0.000   0.000   0.000   0.000  -0.000  -0.000  -0.000  -0.931
 -0.000  -0.000   0.000   0.000   0.000  -0.000   0.000  -0.000
  0.000   0.000  -0.000  -0.000   0.000   0.000  -0.000  -0.000
 -0.000   0.000  -0.000   0.000  -0.000  -0.000   0.000   0.000
 -0.000   0.000   0.000  -0.000  -0.000   0.000   0.000   0.000
 -0.000   0.000   0.000  -0.000  -0.000   0.000   0.000   0.000
 total augmentation occupancy for first ion, spin component:           1
  1.992  -0.000   0.000  -0.026   0.000  -0.000   0.000   0.000  -0.000   0.000   0.000   0.000  -0.000  -0.000  -0.000   0.000
 -0.000   1.992   0.000   0.000  -0.026  -0.000   0.000  -0.000   0.000   0.000  -0.000   0.000   0.000  -0.000  -0.000   0.000
  0.000   0.000   1.992   0.000   0.000  -0.026   0.000   0.000   0.000   0.000   0.000   0.000   0.000   0.000  -0.000   0.000
 -0.026   0.000   0.000   0.179   0.000   0.000   0.000   0.000   0.000  -0.000  -0.000   0.000  -0.000  -0.000  -0.000  -0.000
  0.000  -0.026   0.000   0.000   0.179   0.000  -0.000   0.000  -0.000   0.000  -0.000   0.000  -0.000   0.000  -0.000   0.000
 -0.000  -0.000  -0.026   0.000   0.000   0.159   0.000   0.000   0.000   0.000   0.000   0.000  -0.000  -0.000   0.000   0.000
  0.000   0.000   0.000   0.000  -0.000   0.000   2.997   0.000   0.000  -0.000  -0.000  -1.673   0.000  -0.000  -0.000   0.000
  0.000  -0.000   0.000   0.000   0.000   0.000   0.000   3.317   0.000  -0.000   0.000   0.000  -2.221   0.000  -0.000  -0.000
 -0.000   0.000   0.000   0.000  -0.000   0.000   0.000   0.000   3.412  -0.000   0.168  -0.000   0.000  -1.983   0.000  -0.092
  0.000   0.000   0.000  -0.000   0.000   0.000  -0.000  -0.000  -0.000   2.974  -0.000  -0.000   0.000  -0.000  -1.655   0.000
  0.000  -0.000   0.000  -0.000  -0.000   0.000  -0.000   0.000   0.168  -0.000   3.201   0.000   0.000  -0.092   0.000  -1.865
  0.000   0.000   0.000   0.000   0.000   0.000  -1.673   0.000  -0.000  -0.000   0.000   1.756   0.000   0.000   0.000  -0.000
 -0.000   0.000   0.000  -0.000  -0.000  -0.000   0.000  -2.221   0.000   0.000   0.000   0.000   2.437   0.000   0.000   0.000
 -0.000  -0.000   0.000  -0.000   0.000  -0.000  -0.000   0.000  -1.983  -0.000  -0.092   0.000   0.000   1.820   0.000   0.018
 -0.000  -0.000  -0.000  -0.000  -0.000   0.000  -0.000  -0.000   0.000  -1.655   0.000   0.000   0.000   0.000   1.745  -0.000
  0.000   0.000   0.000  -0.000   0.000   0.000   0.000  -0.000  -0.092   0.000  -1.865  -0.000   0.000   0.018  -0.000   1.790
  0.000  -0.000  -0.000   0.000  -0.000   0.000   0.000   0.000  -0.105   0.000   0.180  -0.000  -0.000   0.076   0.000  -0.130
 -0.000   0.000   0.000  -0.000  -0.000   0.000   0.000   0.000   0.006   0.000  -0.011  -0.000   0.000  -0.004   0.000   0.007
 total augmentation occupancy for first ion, spin component:           2
 -0.002  -0.000   0.000  -0.009  -0.000   0.000   0.000  -0.000   0.000   0.000   0.000  -0.000   0.000   0.000  -0.000   0.000
 -0.000  -0.002   0.000  -0.000  -0.009   0.000   0.000  -0.000   0.000   0.000   0.000   0.000  -0.000  -0.000   0.000  -0.000
  0.000   0.000  -0.002   0.000   0.000  -0.010  -0.000   0.000  -0.000   0.000   0.000   0.000  -0.000   0.000  -0.000   0.000
 -0.009  -0.000   0.000  -0.005   0.000   0.000  -0.000   0.000   0.000   0.000   0.000  -0.000  -0.000   0.000   0.000   0.000
 -0.000  -0.009   0.000   0.000  -0.006   0.000   0.000  -0.000  -0.000   0.000  -0.000   0.000   0.000   0.000   0.000  -0.000
  0.000   0.000  -0.010   0.000   0.000  -0.011  -0.000   0.000  -0.000  -0.000   0.000   0.000   0.000  -0.000  -0.000   0.000
  0.000   0.000  -0.000  -0.000   0.000  -0.000   2.445  -0.000   0.000   0.000  -0.000  -1.072  -0.000   0.000  -0.000   0.000
 -0.000  -0.000   0.000   0.000  -0.000   0.000  -0.000   2.454   0.000   0.000   0.000   0.000  -0.993   0.000  -0.000  -0.000
  0.000   0.000  -0.000   0.000  -0.000  -0.000   0.000   0.000   2.771   0.000   0.094  -0.000   0.000  -1.177  -0.000  -0.092
  0.000   0.000   0.000   0.000   0.000  -0.000   0.000   0.000   0.000   2.417   0.000  -0.000  -0.000  -0.000  -1.055  -0.000
  0.000   0.000   0.000   0.000  -0.000   0.000  -0.000   0.000   0.094   0.000   2.647  -0.000  -0.000  -0.092  -0.000  -1.060
 -0.000   0.000   0.000  -0.000   0.000   0.000  -1.072   0.000  -0.000  -0.000  -0.000   0.266   0.000   0.000  -0.000   0.000
  0.000  -0.000  -0.000  -0.000   0.000   0.000  -0.000  -0.993   0.000  -0.000  -0.000   0.000   0.148  -0.000  -0.000   0.000
  0.000  -0.000   0.000   0.000   0.000  -0.000   0.000   0.000  -1.177  -0.000  -0.092   0.000  -0.000   0.360  -0.000   0.106
 -0.000   0.000  -0.000   0.000   0.000  -0.000  -0.000  -0.000  -0.000  -1.055  -0.000  -0.000  -0.000  -0.000   0.255   0.000
  0.000  -0.000   0.000   0.000  -0.000   0.000   0.000  -0.000  -0.092  -0.000  -1.060   0.000   0.000   0.106   0.000   0.231
  0.000  -0.000  -0.000  -0.000  -0.000   0.000  -0.000   0.000  -0.033   0.000   0.057  -0.000  -0.000   0.033  -0.000  -0.057
 -0.000  -0.000   0.000   0.000  -0.000  -0.000   0.000   0.000   0.002   0.000  -0.005   0.000   0.000  -0.000  -0.000   0.001


------------------------ aborting loop because EDIFF is reached ----------------------------------------





 total charge

# of ion       s       p       d       tot
------------------------------------------
    1        0.345   6.321   6.020  12.686
    2        0.345   6.321   6.020  12.685
    3        0.345   6.321   6.020  12.686
    4        0.345   6.322   6.020  12.686
    5        0.345   6.321   6.019  12.685
    6        0.345   6.321   6.019  12.685
    7        0.345   6.321   6.020  12.686
    8        0.345   6.321   6.020  12.685
    9        0.345   6.321   6.020  12.686
   10        0.757   0.690   8.039   9.487
   11        0.757   0.690   8.039   9.486
   12        0.757   0.690   8.039   9.486
--------------------------------------------------
tot          5.375  58.958  78.297 142.630



 magnetization (x)

# of ion       s       p       d       tot
------------------------------------------
    1       -0.002  -0.017   2.751   2.732
    2       -0.002  -0.017   2.753   2.733
    3       -0.002  -0.017   2.751   2.732
    4       -0.002  -0.017   2.756   2.737
    5       -0.002  -0.017   2.755   2.735
    6       -0.002  -0.017   2.755   2.735
    7       -0.002  -0.017   2.751   2.732
    8       -0.002  -0.017   2.753   2.733
    9       -0.002  -0.017   2.751   2.732
   10       -0.042  -0.101   0.448   0.305
   11       -0.042  -0.101   0.447   0.305
   12       -0.042  -0.101   0.447   0.305
--------------------------------------------------
tot         -0.146  -0.457  26.119  25.516
 
    CHARGE:  cpu time      0.1435: real time      0.1446
    FORLOC:  cpu time      0.0024: real time      0.0024
    FORNL :  cpu time      0.7337: real time      0.7375
    STRESS:  cpu time      4.4715: real time      4.5057
    FORCOR:  cpu time      0.0203: real time      0.0205
    FORHAR:  cpu time      0.0025: real time      0.0026
    MIXING:  cpu time      0.0024: real time      0.0024
    OFIELD:  cpu time      0.0002: real time      0.0002

  FORCE on cell =-STRESS in cart. coord.  units (eV):
  Direction    XX          YY          ZZ          XY          YZ          ZX
  --------------------------------------------------------------------------------------
  Alpha Z  1084.01356  1084.01356  1084.01356
  Ewald   -6017.61454 -6017.61454 -6018.60228    -0.00000    -0.00000    -0.00000
  Hartree  1889.63463  1889.63463  1889.11586    -0.00000    -0.00000    -0.00000
  E(xc)    -944.44189  -944.44189  -944.44253    -0.00000    -0.00000    -0.00000
  Local    1072.92848  1072.92848  1074.40870     0.00000    -0.00000     0.00000
  n-local  -215.65693  -229.75740  -222.95575    14.95022    -0.10517    -0.10915
  augment  1439.08467  1439.08467  1439.16203     0.00000     0.00000    -0.00000
  Kinetic  1700.96499  1695.38595  1698.08076     1.42288     0.29564     0.72323
  Fock        0.00000     0.00000     0.00000     0.00000     0.00000     0.00000
  -------------------------------------------------------------------------------------
  Total      -0.92678    -0.92678    -1.21965     0.00000     0.00000    -0.00000
  in kB      -9.45776    -9.45776   -12.44645     0.00000     0.00000    -0.00000
  external pressure =      -10.45 kB  Pullay stress =        0.00 kB


 VOLUME and BASIS-vectors are now :
 -----------------------------------------------------------------------------
  energy-cutoff  :      520.00
  volume of cell :      157.00
      direct lattice vectors                 reciprocal lattice vectors
     3.739361727  0.000000000  0.000000000     0.267425318  0.000000000  0.000000000
     0.000000000  3.739361727  0.000000000     0.000000000  0.267425318  0.000000000
     0.000000000  0.000000000 11.228059235     0.000000000  0.000000000  0.089062587

  length of vectors
     3.739361727  3.739361727 11.228059235     0.267425318  0.267425318  0.089062587


 FORCES acting on ions
    electron-ion (+dipol)            ewald-force                    non-local-force                 convergence-correction
 -----------------------------------------------------------------------------------------------
   -.669E-13 0.126E-11 -.144E+01   0.282E-13 -.914E-14 0.142E+01   -.321E-20 -.374E-21 0.426E-02   -.456E-13 0.725E-14 0.163E-01
   -.669E-13 0.114E-11 0.315E-11   0.181E-13 0.182E-13 0.284E-12   0.225E-25 -.636E-24 -.480E-23   -.425E-13 0.260E-14 -.185E-11
   -.676E-13 0.141E-11 0.144E+01   0.273E-13 0.131E-13 -.142E+01   0.132E-19 0.461E-20 -.426E-02   -.397E-13 -.128E-14 -.163E-01
   0.113E-11 0.798E-11 0.479E-11   0.189E-13 -.166E-13 -.114E-12   -.175E-23 -.183E-23 -.549E-24   -.251E-12 0.214E-14 0.133E-11
   0.113E-11 0.698E-11 -.277E+01   -.463E-14 -.394E-14 0.276E+01   -.853E-21 -.595E-21 0.577E-02   -.238E-12 0.124E-13 0.639E-02
   0.113E-11 0.697E-11 0.277E+01   0.220E-13 0.109E-14 -.276E+01   0.908E-21 -.838E-21 -.577E-02   -.246E-12 0.751E-14 -.639E-02
   0.112E-11 -.654E-13 -.144E+01   -.351E-13 -.954E-14 0.142E+01   -.471E-20 0.147E-20 0.426E-02   -.213E-12 0.320E-13 0.163E-01
   0.112E-11 -.691E-13 0.598E-11   -.241E-13 -.261E-13 0.284E-12   0.649E-24 -.450E-25 -.484E-23   -.219E-12 0.337E-13 -.184E-11
   0.113E-11 -.728E-13 0.144E+01   -.466E-13 0.109E-13 -.142E+01   0.916E-20 -.529E-20 -.426E-02   -.223E-12 0.308E-13 -.163E-01
   -.360E-13 -.341E-13 -.215E-12   -.376E-14 0.103E-13 0.000E+00   0.877E-24 0.115E-23 -.124E-23   0.488E-13 0.506E-14 0.103E-11
   -.358E-13 -.266E-13 -.151E+01   0.268E-13 0.483E-14 0.151E+01   0.994E-21 -.448E-21 -.425E-02   0.482E-13 0.380E-14 0.387E-02
   -.364E-13 -.417E-13 0.151E+01   -.106E-14 -.155E-13 -.151E+01   -.717E-21 -.125E-20 0.425E-02   0.490E-13 0.368E-14 -.387E-02
 -----------------------------------------------------------------------------------------------
   0.646E-11 0.254E-10 0.341E-10   0.261E-13 -.223E-13 -.129E-12   0.148E-19 -.272E-20 -.867E-18   -.137E-11 0.140E-12 -.669E-12
 
 
 POSITION                                       TOTAL-FORCE (eV/Angst)
 -----------------------------------------------------------------------------------
      0.00000      1.86968      1.87078        -0.000000      0.000000      0.002651
      0.00000      1.86968      5.61403        -0.000000     -0.000000     -0.000000
      0.00000      1.86968      9.35728        -0.000000      0.000000     -0.002651
      1.86968      1.86968      0.00000         0.000000     -0.000000     -0.000000
      1.86968      1.86968      3.74112         0.000000      0.000000      0.001057
      1.86968      1.86968      7.48694        -0.000000      0.000000     -0.001057
      1.86968      0.00000      1.87078        -0.000000      0.000000      0.002651
      1.86968      0.00000      5.61403        -0.000000      0.000000     -0.000000
      1.86968      0.00000      9.35728        -0.000000      0.000000     -0.002651
      0.00000      0.00000      0.00000        -0.000000      0.000000     -0.000000
      0.00000      0.00000      3.74217        -0.000000      0.000000     -0.001431
      0.00000      0.00000      7.48589        -0.000000      0.000000      0.001431
 -----------------------------------------------------------------------------------
    total drift:                                0.000000      0.000000      0.000000


--------------------------------------------------------------------------------------------------------



  FREE ENERGIE OF THE ION-ELECTRON SYSTEM (eV)
  ---------------------------------------------------
  free  energy   TOTEN  =       -93.53054475 eV

  energy  without entropy=      -93.53054475  energy(sigma->0) =      -93.53054475
 


--------------------------------------------------------------------------------------------------------


    POTLOK:  cpu time      0.0380: real time      0.0384


--------------------------------------------------------------------------------------------------------


     LOOP+:  cpu time    164.7981: real time    166.0471
 -----------------------------------------------------------------------------
|                                                                             |
|           W    W    AA    RRRRR   N    N  II  N    N   GGGG   !!!           |
|           W    W   A  A   R    R  NN   N  II  NN   N  G    G  !!!           |
|           W    W  A    A  R    R  N N  N  II  N N  N  G       !!!           |
|           W WW W  AAAAAA  RRRRR   N  N N  II  N  N N  G  GGG   !            |
|           WW  WW  A    A  R   R   N   NN  II  N   NN  G    G                |
|           W    W  A    A  R    R  N    N  II  N    N   GGGG   !!!           |
|                                                                             |
|     Tetrahedron method does not include variations of the Fermi             |
|     occupations, so forces and stress will be inaccurate. We suggest        |
|     using a different smearing scheme ISMEAR = 1 or 2 for metals in         |
|     relaxations.                                                            |
|                                                                             |
 -----------------------------------------------------------------------------

    4ORBIT:  cpu time      0.0000: real time      0.0000



 total charge

# of ion       s       p       d       tot
------------------------------------------
    1        0.345   6.321   6.020  12.686
    2        0.345   6.321   6.020  12.685
    3        0.345   6.321   6.020  12.686
    4        0.345   6.322   6.020  12.686
    5        0.345   6.321   6.019  12.685
    6        0.345   6.321   6.019  12.685
    7        0.345   6.321   6.020  12.686
    8        0.345   6.321   6.020  12.685
    9        0.345   6.321   6.020  12.686
   10        0.757   0.690   8.039   9.487
   11        0.757   0.690   8.039   9.486
   12        0.757   0.690   8.039   9.486
--------------------------------------------------
tot          5.375  58.958  78.297 142.630



 magnetization (x)

# of ion       s       p       d       tot
------------------------------------------
    1       -0.002  -0.017   2.751   2.732
    2       -0.002  -0.017   2.753   2.733
    3       -0.002  -0.017   2.751   2.732
    4       -0.002  -0.017   2.756   2.737
    5       -0.002  -0.017   2.755   2.735
    6       -0.002  -0.017   2.755   2.735
    7       -0.002  -0.017   2.751   2.732
    8       -0.002  -0.017   2.753   2.733
    9       -0.002  -0.017   2.751   2.732
   10       -0.042  -0.101   0.448   0.305
   11       -0.042  -0.101   0.447   0.305
   12       -0.042  -0.101   0.447   0.305
--------------------------------------------------
tot         -0.146  -0.457  26.119  25.516
 
 BZINTS: Fermi energy:    9.626205;  156.000000 electrons
         Band energy:-0.164268E+04;  BLOECHL correction:   -0.060915

 total amount of memory used by VASP MPI-rank0   191145. kBytes
=======================================================================

   base      :      30000. kBytes
   nonl-proj :     104558. kBytes
   fftplans  :        888. kBytes
   grid      :       6813. kBytes
   one-center:        373. kBytes
   wavefun   :      48513. kBytes
 
  
  
 General timing and accounting informations for this job:
 ========================================================
  
                  Total CPU time used (sec):      184.110
                            User time (sec):      176.335
                          System time (sec):        7.775
                         Elapsed time (sec):      191.296
  
                   Maximum memory used (kb):      874544.
                   Average memory used (kb):          N/A
  
                          Minor page faults:       167090
                          Major page faults:          148
                 Voluntary context switches:         6900
