 vasp.6.4.3 19Mar24 (build Mar 26 2024 14:05:37) complex                        
  
 executed on             LinuxIFC date 2024.12.16  07:53:29
 running  128 mpi-ranks, on    1 nodes
 distrk:  each k-point on   32 cores,    4 groups
 distr:  one band on NCORE=   1 cores,   32 groups


--------------------------------------------------------------------------------------------------------


 INCAR:
   ALGO = All
   EDIFF = 1e-06
   EDIFFG = -0.01
   ENCUT = 520
   GGA = Pe
   IBRION = 2
   ISIF = 4
   ISMEAR = 1
   ISPIN = 2
   KPAR = 4
   LCHARG = True
   LORBIT = 11
   LREAL = False
   LWAVE = False
   MAGMOM = 1*2.756 1*2.761 1*2.756 1*2.759 2*2.762 1*2.756 1*2.761 1*2.756 1*0.299 2*0.3
   NELM = 200
   NSW = 100
   PREC = Accurate
   SIGMA = 0.2

 POTCAR:    PAW_PBE Fe_pv 02Aug2007               
 POTCAR:    PAW_PBE Pt 04Feb2005                  
 -----------------------------------------------------------------------------
|                                                                             |
|           W    W    AA    RRRRR   N    N  II  N    N   GGGG   !!!           |
|           W    W   A  A   R    R  NN   N  II  NN   N  G    G  !!!           |
|           W    W  A    A  R    R  N N  N  II  N N  N  G       !!!           |
|           W WW W  AAAAAA  RRRRR   N  N N  II  N  N N  G  GGG   !            |
|           WW  WW  A    A  R   R   N   NN  II  N   NN  G    G                |
|           W    W  A    A  R    R  N    N  II  N    N   GGGG   !!!           |
|                                                                             |
|     For optimal performance we recommend to set                             |
|       NCORE = 2 up to number-of-cores-per-socket                            |
|     NCORE specifies how many cores store one orbital (NPAR=cpu/NCORE).      |
|     This setting can greatly improve the performance of VASP for DFT.       |
|     The default, NCORE=1 might be grossly inefficient on modern             |
|     multi-core architectures or massively parallel machines. Do your        |
|     own testing! More info at https://www.vasp.at/wiki/index.php/NCORE      |
|     Unfortunately you need to use the default for GW and RPA                |
|     calculations (for HF NCORE is supported but not extensively tested      |
|     yet).                                                                   |
|                                                                             |
 -----------------------------------------------------------------------------

 POTCAR:    PAW_PBE Fe_pv 02Aug2007               
   SHA256 =  5d22e414b1f82158bf2c7ecb8b97b28fd0923e48cadc1c3bf74d524558f5dd32 Fe_pv/POTCAR          
   COPYR  = (c) Copyright 02Aug2007 Georg Kresse                                                    
   COPYR  = This file is part of the software VASP. Any use, copying, and all other rights are regul
   COPYR  = If you do not have a valid VASP license, you may not use, copy or distribute this file. 
   VRHFIN =Fe:  3pd7s1                                                                              
   LEXCH  = PE                                                                                      
   EATOM  =  2457.4239 eV,  180.6156 Ry                                                             
                                                                                                    
   TITEL  = PAW_PBE Fe_pv 02Aug2007                                                                 
   LULTRA =        F    use ultrasoft PP ?                                                          
   IUNSCR =        1    unscreen: 0-lin 1-nonlin 2-no                                               
   RPACOR =    1.750    partial core radius                                                         
   POMASS =   55.847; ZVAL   =   14.000    mass and valenz                                          
   RCORE  =    2.200    outmost cutoff radius                                                       
   RWIGS  =    2.200; RWIGS  =    1.164    wigner-seitz radius (au A)                               
   ENMAX  =  293.238; ENMIN  =  219.928 eV                                                          
   ICORE  =        3    local potential                                                             
   LCOR   =        T    correct aug charges                                                         
   LPAW   =        T    paw PP                                                                      
   EAUG   =  578.342                                                                                
   DEXC   =    0.000                                                                                
   RMAX   =    2.249    core radius for proj-oper                                                   
   RAUG   =    1.300    factor for augmentation sphere                                              
   RDEP   =    2.296    radius for radial grids                                                     
   RDEPT  =    1.766    core radius for aug-charge                                                  
                                                                                                    
   Atomic configuration                                                                             
    8 entries                                                                                       
     n  l   j            E        occ.                                                              
     1  0  0.50     -6993.8440   2.0000                                                             
     2  0  0.50      -814.6047   2.0000                                                             
     2  1  1.50      -693.3689   6.0000                                                             
     3  0  0.50       -89.4732   2.0000                                                             
     3  1  1.50       -55.6373   6.0000                                                             
     3  2  2.50        -3.8151   7.0000                                                             
     4  0  0.50        -4.2551   1.0000                                                             
     4  3  2.50        -1.3606   0.0000                                                             
   Description                                                                                      
     l       E           TYP  RCUT    TYP  RCUT                                                     
     1    -55.6372668     23  2.000                                                                 
     1     -5.4423304     23  2.000                                                                 
     2     -3.8151096     23  2.200                                                                 
     2     -5.1756922     23  2.200                                                                 
     0     -4.2550951     23  2.200                                                                 
     0     27.2116520     23  2.200                                                                 
     3     -1.3605826     23  2.200                                                                 
  local pseudopotential read in
  partial core-charges read in
  partial kinetic energy density read in
  atomic valenz-charges read in
  non local Contribution for L=           1  read in
    real space projection operators read in
  non local Contribution for L=           1  read in
    real space projection operators read in
  non local Contribution for L=           2  read in
    real space projection operators read in
  non local Contribution for L=           2  read in
    real space projection operators read in
  non local Contribution for L=           0  read in
    real space projection operators read in
  non local Contribution for L=           0  read in
    real space projection operators read in
    PAW grid and wavefunctions read in
 
   number of l-projection  operators is LMAX  =           6
   number of lm-projection operators is LMMAX =          18
 
 POTCAR:    PAW_PBE Pt 04Feb2005                  
   SHA256 =  3ed90460adef76debcff1cfb73ee1349b515b1a3db03439735b44de3a8db7dc8 Pt/POTCAR             
   COPYR  = (c) Copyright 04Feb2005 Georg Kresse                                                    
   COPYR  = This file is part of the software VASP. Any use, copying, and all other rights are regul
   COPYR  = If you do not have a valid VASP license, you may not use, copy or distribute this file. 
   VRHFIN =Pt: s1d9                                                                                 
   LEXCH  = PE                                                                                      
   EATOM  =   729.1176 eV,   53.5886 Ry                                                             
                                                                                                    
   TITEL  = PAW_PBE Pt 04Feb2005                                                                    
   LULTRA =        F    use ultrasoft PP ?                                                          
   IUNSCR =        1    unscreen: 0-lin 1-nonlin 2-no                                               
   RPACOR =    2.330    partial core radius                                                         
   POMASS =  195.080; ZVAL   =   10.000    mass and valenz                                          
   RCORE  =    2.600    outmost cutoff radius                                                       
   RWIGS  =    2.750; RWIGS  =    1.455    wigner-seitz radius (au A)                               
   ENMAX  =  230.283; ENMIN  =  172.712 eV                                                          
   ICORE  =        3    local potential                                                             
   LCOR   =        T    correct aug charges                                                         
   LPAW   =        T    paw PP                                                                      
   EAUG   =  358.966                                                                                
   DEXC   =    0.000                                                                                
   RMAX   =    2.658    core radius for proj-oper                                                   
   RAUG   =    1.300    factor for augmentation sphere                                              
   RDEP   =    2.761    radius for radial grids                                                     
   RDEPT  =    2.203    core radius for aug-charge                                                  
                                                                                                    
   Atomic configuration                                                                             
   16 entries                                                                                       
     n  l   j            E        occ.                                                              
     1  0  0.50    -78401.1885   2.0000                                                             
     2  0  0.50    -13770.7750   2.0000                                                             
     2  1  1.50    -11931.0468   6.0000                                                             
     3  0  0.50     -3234.7234   2.0000                                                             
     3  1  1.50     -2699.2216   6.0000                                                             
     3  2  2.50     -2119.5714  10.0000                                                             
     4  0  0.50      -695.1528   2.0000                                                             
     4  1  1.50      -519.6034   6.0000                                                             
     4  2  2.50      -306.6786  10.0000                                                             
     4  3  3.50       -70.1041  14.0000                                                             
     5  0  0.50      -101.7747   2.0000                                                             
     5  1  1.50       -55.9873   6.0000                                                             
     5  2  2.50        -6.1423   9.0000                                                             
     6  0  0.50        -5.6573   1.0000                                                             
     6  1  1.50        -6.8029   0.0000                                                             
     5  3  2.50        -1.3606   0.0000                                                             
   Description                                                                                      
     l       E           TYP  RCUT    TYP  RCUT                                                     
     2     -6.1423404     23  2.500                                                                 
     2     -7.5029230     23  2.500                                                                 
     0     -5.6573207     23  2.500                                                                 
     0      0.7416693     23  2.500                                                                 
     1     -2.7211652     23  2.600                                                                 
     1     20.4087390     23  2.600                                                                 
     3     -1.3605826     23  2.500                                                                 
  local pseudopotential read in
  partial core-charges read in
  partial kinetic energy density read in
  atomic valenz-charges read in
  non local Contribution for L=           2  read in
    real space projection operators read in
  non local Contribution for L=           2  read in
    real space projection operators read in
  non local Contribution for L=           0  read in
    real space projection operators read in
  non local Contribution for L=           0  read in
    real space projection operators read in
  non local Contribution for L=           1  read in
    real space projection operators read in
  non local Contribution for L=           1  read in
    real space projection operators read in
    PAW grid and wavefunctions read in
 
   number of l-projection  operators is LMAX  =           6
   number of lm-projection operators is LMMAX =          18
 
  PAW_PBE Fe_pv 02Aug2007               :
 energy of atom  1       EATOM=-2457.4239
 kinetic energy error for atom=    0.0062 (will be added to EATOM!!)
  PAW_PBE Pt 04Feb2005                  :
 energy of atom  2       EATOM= -729.1176
 kinetic energy error for atom=    0.0032 (will be added to EATOM!!)
 
 
 POSCAR: Fe9 Pt3
  positions in direct lattice
  No initial velocities read in


 exchange-correlation table for PE
   RHO(1)=    0.500       N(1)  =     2000
   RHO(2)=  100.500       N(2)  =     4000
 


--------------------------------------------------------------------------------------------------------


 ion  position               nearest neighbor table
   1  0.000  0.500  0.166-   4 2.64  10 2.64  10 2.64   4 2.64   7 2.64   7 2.64   7 2.64   7 2.64
                             5 2.64   5 2.64  11 2.65  11 2.65
   2  0.000  0.500  0.500-   8 2.64   8 2.64   8 2.64   8 2.64  11 2.65  12 2.65  12 2.65  11 2.65
                             5 2.65   6 2.65   5 2.65   6 2.65
   3  0.000  0.500  0.834-   4 2.64  10 2.64  10 2.64   4 2.64   9 2.64   9 2.64   9 2.64   9 2.64
                             6 2.64   6 2.64  12 2.65  12 2.65
   4  0.500  0.500  0.000-   1 2.64   3 2.64   7 2.64   9 2.64   7 2.64   9 2.64   1 2.64   3 2.64
                            10 2.64  10 2.64  10 2.64  10 2.64
   5  0.500  0.500  0.333-  11 2.64  11 2.64  11 2.64  11 2.64   7 2.64   1 2.64   1 2.64   7 2.64
                             8 2.65   2 2.65   8 2.65   2 2.65
   6  0.500  0.500  0.667-  12 2.64  12 2.64  12 2.64  12 2.64   9 2.64   3 2.64   3 2.64   9 2.64
                             2 2.65   8 2.65   2 2.65   8 2.65
   7  0.500  0.000  0.166-   4 2.64  10 2.64   4 2.64  10 2.64   1 2.64   1 2.64   1 2.64   1 2.64
                             5 2.64   5 2.64  11 2.65  11 2.65
   8  0.500  0.000  0.500-   2 2.64   2 2.64   2 2.64   2 2.64  12 2.65  11 2.65  12 2.65  11 2.65
                             6 2.65   5 2.65   5 2.65   6 2.65
   9  0.500  0.000  0.834-   4 2.64  10 2.64   4 2.64  10 2.64   3 2.64   3 2.64   3 2.64   3 2.64
                             6 2.64   6 2.64  12 2.65  12 2.65
  10  0.000  0.000  0.000-   1 2.64   3 2.64   7 2.64   9 2.64   1 2.64   3 2.64   7 2.64   9 2.64
                             4 2.64   4 2.64   4 2.64   4 2.64
  11  0.000  0.000  0.333-   5 2.64   5 2.64   5 2.64   5 2.64   1 2.65   7 2.65   7 2.65   1 2.65
                             2 2.65   2 2.65   8 2.65   8 2.65
  12  0.000  0.000  0.667-   6 2.64   6 2.64   6 2.64   6 2.64   3 2.65   9 2.65   9 2.65   3 2.65
                             2 2.65   8 2.65   8 2.65   2 2.65
 
  LATTYP: Found a simple tetragonal cell.
 ALAT       =     3.7392388193
 C/A-ratio  =     3.0029634145
  
  Lattice vectors:
  
 A1 = (   3.7392388193,   0.0000000000,   0.0000000000)
 A2 = (   0.0000000000,   3.7392388193,   0.0000000000)
 A3 = (   0.0000000000,   0.0000000000,  11.2287973724)


Analysis of symmetry for initial positions (statically):
=====================================================================
 Subroutine PRICEL returns:
 Original cell was already a primitive cell.
 

 Routine SETGRP: Setting up the symmetry group for a 
 simple tetragonal supercell.


 Subroutine GETGRP returns: Found 16 space group operations
 (whereof 16 operations were pure point group operations)
 out of a pool of 16 trial point group operations.


The static configuration has the point symmetry D_4h.


Analysis of symmetry for dynamics (positions and initial velocities):
=====================================================================
 Subroutine PRICEL returns:
 Original cell was already a primitive cell.
 

 Routine SETGRP: Setting up the symmetry group for a 
 simple tetragonal supercell.


 Subroutine GETGRP returns: Found 16 space group operations
 (whereof 16 operations were pure point group operations)
 out of a pool of 16 trial point group operations.


The dynamic configuration has the point symmetry D_4h.


Analysis of structural, dynamic, and magnetic symmetry:
=====================================================================
 Subroutine PRICEL returns:
 Original cell was already a primitive cell.
 

 Routine SETGRP: Setting up the symmetry group for a 
 simple tetragonal supercell.


 Subroutine GETGRP returns: Found 16 space group operations
 (whereof 16 operations were pure point group operations)
 out of a pool of 16 trial point group operations.


The overall configuration has the point symmetry D_4h.


 Subroutine INISYM returns: Found 16 space group operations
 (whereof 16 operations are pure point group operations),
 and found     1 'primitive' translations


----------------------------------------------------------------------------------------

                                     Primitive cell                                     

  volume of cell :     157.0000

  direct lattice vectors                    reciprocal lattice vectors
     3.739238819  0.000000000  0.000000000     0.267434108  0.000000000  0.000000000
     0.000000000  3.739238819  0.000000000     0.000000000  0.267434108  0.000000000
     0.000000000  0.000000000 11.228797372     0.000000000  0.000000000  0.089056732

  length of vectors
     3.739238819  3.739238819 11.228797372     0.267434108  0.267434108  0.089056732

  position of ions in fractional coordinates (direct lattice)
     0.000000000  0.500000000  0.166484995
     0.000000000  0.500000000  0.500000000
     0.000000000  0.500000000  0.833515005
     0.500000000  0.500000000  0.000000000
     0.500000000  0.500000000  0.333057971
     0.500000000  0.500000000  0.666942029
     0.500000000  0.000000000  0.166484995
     0.500000000  0.000000000  0.500000000
     0.500000000  0.000000000  0.833515005
     0.000000000  0.000000000  0.000000000
     0.000000000  0.000000000  0.333169154
     0.000000000  0.000000000  0.666830846

  ion indices of the primitive-cell ions
   primitive index   ion index
                 1           1
                 2           2
                 3           3
                 4           4
                 5           5
                 6           6
                 7           7
                 8           8
                 9           9
                10          10
                11          11
                12          12

----------------------------------------------------------------------------------------

 
 
 KPOINTS: pymatgen with grid density = 8800 / numb

Automatic generation of k-mesh.
 Grid dimensions read from file:
 generate k-points for:   13   13    4

 Generating k-lattice:

  Cartesian coordinates                     Fractional coordinates (reciprocal lattice)
     0.020571854  0.000000000  0.000000000     0.076923077  0.000000000  0.000000000
     0.000000000  0.020571854  0.000000000     0.000000000  0.076923077  0.000000000
     0.000000000  0.000000000  0.022264183     0.000000000  0.000000000  0.250000000

  Length of vectors
     0.020571854  0.020571854  0.022264183

  Shift w.r.t. Gamma in fractional coordinates (k-lattice)
     0.000000000  0.000000000  0.000000000

 
 Subroutine IBZKPT returns following result:
 ===========================================
 
 Found     84 irreducible k-points:
 
 Following reciprocal coordinates:
            Coordinates               Weight
  0.000000  0.000000  0.000000      1.000000
  0.076923  0.000000  0.000000      4.000000
  0.153846  0.000000  0.000000      4.000000
  0.230769  0.000000  0.000000      4.000000
  0.307692  0.000000  0.000000      4.000000
  0.384615  0.000000  0.000000      4.000000
  0.461538  0.000000  0.000000      4.000000
  0.076923  0.076923  0.000000      4.000000
  0.153846  0.076923  0.000000      8.000000
  0.230769  0.076923  0.000000      8.000000
  0.307692  0.076923  0.000000      8.000000
  0.384615  0.076923  0.000000      8.000000
  0.461538  0.076923  0.000000      8.000000
  0.153846  0.153846  0.000000      4.000000
  0.230769  0.153846  0.000000      8.000000
  0.307692  0.153846  0.000000      8.000000
  0.384615  0.153846  0.000000      8.000000
  0.461538  0.153846  0.000000      8.000000
  0.230769  0.230769  0.000000      4.000000
  0.307692  0.230769  0.000000      8.000000
  0.384615  0.230769  0.000000      8.000000
  0.461538  0.230769  0.000000      8.000000
  0.307692  0.307692  0.000000      4.000000
  0.384615  0.307692  0.000000      8.000000
  0.461538  0.307692  0.000000      8.000000
  0.384615  0.384615  0.000000      4.000000
  0.461538  0.384615  0.000000      8.000000
  0.461538  0.461538  0.000000      4.000000
  0.000000  0.000000  0.250000      2.000000
  0.076923  0.000000  0.250000      8.000000
  0.153846  0.000000  0.250000      8.000000
  0.230769  0.000000  0.250000      8.000000
  0.307692  0.000000  0.250000      8.000000
  0.384615  0.000000  0.250000      8.000000
  0.461538  0.000000  0.250000      8.000000
  0.076923  0.076923  0.250000      8.000000
  0.153846  0.076923  0.250000     16.000000
  0.230769  0.076923  0.250000     16.000000
  0.307692  0.076923  0.250000     16.000000
  0.384615  0.076923  0.250000     16.000000
  0.461538  0.076923  0.250000     16.000000
  0.153846  0.153846  0.250000      8.000000
  0.230769  0.153846  0.250000     16.000000
  0.307692  0.153846  0.250000     16.000000
  0.384615  0.153846  0.250000     16.000000
  0.461538  0.153846  0.250000     16.000000
  0.230769  0.230769  0.250000      8.000000
  0.307692  0.230769  0.250000     16.000000
  0.384615  0.230769  0.250000     16.000000
  0.461538  0.230769  0.250000     16.000000
  0.307692  0.307692  0.250000      8.000000
  0.384615  0.307692  0.250000     16.000000
  0.461538  0.307692  0.250000     16.000000
  0.384615  0.384615  0.250000      8.000000
  0.461538  0.384615  0.250000     16.000000
  0.461538  0.461538  0.250000      8.000000
  0.000000  0.000000  0.500000      1.000000
  0.076923  0.000000  0.500000      4.000000
  0.153846  0.000000  0.500000      4.000000
  0.230769  0.000000  0.500000      4.000000
  0.307692  0.000000  0.500000      4.000000
  0.384615  0.000000  0.500000      4.000000
  0.461538  0.000000  0.500000      4.000000
  0.076923  0.076923  0.500000      4.000000
  0.153846  0.076923  0.500000      8.000000
  0.230769  0.076923  0.500000      8.000000
  0.307692  0.076923  0.500000      8.000000
  0.384615  0.076923  0.500000      8.000000
  0.461538  0.076923  0.500000      8.000000
  0.153846  0.153846  0.500000      4.000000
  0.230769  0.153846  0.500000      8.000000
  0.307692  0.153846  0.500000      8.000000
  0.384615  0.153846  0.500000      8.000000
  0.461538  0.153846  0.500000      8.000000
  0.230769  0.230769  0.500000      4.000000
  0.307692  0.230769  0.500000      8.000000
  0.384615  0.230769  0.500000      8.000000
  0.461538  0.230769  0.500000      8.000000
  0.307692  0.307692  0.500000      4.000000
  0.384615  0.307692  0.500000      8.000000
  0.461538  0.307692  0.500000      8.000000
  0.384615  0.384615  0.500000      4.000000
  0.461538  0.384615  0.500000      8.000000
  0.461538  0.461538  0.500000      4.000000
 
 Following cartesian coordinates:
            Coordinates               Weight
  0.000000  0.000000  0.000000      1.000000
  0.020572  0.000000  0.000000      4.000000
  0.041144  0.000000  0.000000      4.000000
  0.061716  0.000000  0.000000      4.000000
  0.082287  0.000000  0.000000      4.000000
  0.102859  0.000000  0.000000      4.000000
  0.123431  0.000000  0.000000      4.000000
  0.020572  0.020572  0.000000      4.000000
  0.041144  0.020572  0.000000      8.000000
  0.061716  0.020572  0.000000      8.000000
  0.082287  0.020572  0.000000      8.000000
  0.102859  0.020572  0.000000      8.000000
  0.123431  0.020572  0.000000      8.000000
  0.041144  0.041144  0.000000      4.000000
  0.061716  0.041144  0.000000      8.000000
  0.082287  0.041144  0.000000      8.000000
  0.102859  0.041144  0.000000      8.000000
  0.123431  0.041144  0.000000      8.000000
  0.061716  0.061716  0.000000      4.000000
  0.082287  0.061716  0.000000      8.000000
  0.102859  0.061716  0.000000      8.000000
  0.123431  0.061716  0.000000      8.000000
  0.082287  0.082287  0.000000      4.000000
  0.102859  0.082287  0.000000      8.000000
  0.123431  0.082287  0.000000      8.000000
  0.102859  0.102859  0.000000      4.000000
  0.123431  0.102859  0.000000      8.000000
  0.123431  0.123431  0.000000      4.000000
  0.000000  0.000000  0.022264      2.000000
  0.020572  0.000000  0.022264      8.000000
  0.041144  0.000000  0.022264      8.000000
  0.061716  0.000000  0.022264      8.000000
  0.082287  0.000000  0.022264      8.000000
  0.102859  0.000000  0.022264      8.000000
  0.123431  0.000000  0.022264      8.000000
  0.020572  0.020572  0.022264      8.000000
  0.041144  0.020572  0.022264     16.000000
  0.061716  0.020572  0.022264     16.000000
  0.082287  0.020572  0.022264     16.000000
  0.102859  0.020572  0.022264     16.000000
  0.123431  0.020572  0.022264     16.000000
  0.041144  0.041144  0.022264      8.000000
  0.061716  0.041144  0.022264     16.000000
  0.082287  0.041144  0.022264     16.000000
  0.102859  0.041144  0.022264     16.000000
  0.123431  0.041144  0.022264     16.000000
  0.061716  0.061716  0.022264      8.000000
  0.082287  0.061716  0.022264     16.000000
  0.102859  0.061716  0.022264     16.000000
  0.123431  0.061716  0.022264     16.000000
  0.082287  0.082287  0.022264      8.000000
  0.102859  0.082287  0.022264     16.000000
  0.123431  0.082287  0.022264     16.000000
  0.102859  0.102859  0.022264      8.000000
  0.123431  0.102859  0.022264     16.000000
  0.123431  0.123431  0.022264      8.000000
  0.000000  0.000000  0.044528      1.000000
  0.020572  0.000000  0.044528      4.000000
  0.041144  0.000000  0.044528      4.000000
  0.061716  0.000000  0.044528      4.000000
  0.082287  0.000000  0.044528      4.000000
  0.102859  0.000000  0.044528      4.000000
  0.123431  0.000000  0.044528      4.000000
  0.020572  0.020572  0.044528      4.000000
  0.041144  0.020572  0.044528      8.000000
  0.061716  0.020572  0.044528      8.000000
  0.082287  0.020572  0.044528      8.000000
  0.102859  0.020572  0.044528      8.000000
  0.123431  0.020572  0.044528      8.000000
  0.041144  0.041144  0.044528      4.000000
  0.061716  0.041144  0.044528      8.000000
  0.082287  0.041144  0.044528      8.000000
  0.102859  0.041144  0.044528      8.000000
  0.123431  0.041144  0.044528      8.000000
  0.061716  0.061716  0.044528      4.000000
  0.082287  0.061716  0.044528      8.000000
  0.102859  0.061716  0.044528      8.000000
  0.123431  0.061716  0.044528      8.000000
  0.082287  0.082287  0.044528      4.000000
  0.102859  0.082287  0.044528      8.000000
  0.123431  0.082287  0.044528      8.000000
  0.102859  0.102859  0.044528      4.000000
  0.123431  0.102859  0.044528      8.000000
  0.123431  0.123431  0.044528      4.000000
 


--------------------------------------------------------------------------------------------------------




 Dimension of arrays:
   k-points           NKPTS =     84   k-points in BZ     NKDIM =     84   number of bands    NBANDS=    128
   number of dos      NEDOS =    301   number of ions     NIONS =     12
   non local maximal  LDIM  =      6   non local SUM 2l+1 LMDIM =     18
   total plane-waves  NPLWV =  65856
   max r-space proj   IRMAX =      1   max aug-charges    IRDMAX=  25602
   dimension x,y,z NGX =    28 NGY =   28 NGZ =   84
   dimension x,y,z NGXF=    56 NGYF=   56 NGZF=  168
   support grid    NGXF=    56 NGYF=   56 NGZF=  168
   ions per type =               9   3
   NGX,Y,Z   is equivalent  to a cutoff of  12.45, 12.45, 12.44 a.u.
   NGXF,Y,Z  is equivalent  to a cutoff of  24.90, 24.90, 24.87 a.u.

 SYSTEM =  unknown system                          
 POSCAR =  Fe9 Pt3                                 

 Startparameter for this run:
   NWRITE =      2    write-flag & timer
   PREC   = accura    normal or accurate (medium, high low for compatibility)
   ISTART =      0    job   : 0-new  1-cont  2-samecut
   ICHARG =      2    charge: 1-file 2-atom 10-const
   ISPIN  =      2    spin polarized calculation?
   LNONCOLLINEAR =      F non collinear calculations
   LSORBIT =      F    spin-orbit coupling
   INIWAV =      1    electr: 0-lowe 1-rand  2-diag
   LASPH  =      F    aspherical Exc in radial PAW
 Electronic Relaxation 1
   ENCUT  =  520.0 eV  38.22 Ry    6.18 a.u.   6.95  6.95 20.88*2*pi/ulx,y,z
   ENINI  =  520.0     initial cutoff
   ENAUG  =  578.3 eV  augmentation charge cutoff
   NELM   =    200;   NELMIN=  2; NELMDL=  0     # of ELM steps 
   EDIFF  = 0.1E-05   stopping-criterion for ELM
   LREAL  =      F    real-space projection
   NLSPLINE    = F    spline interpolate recip. space projectors
   LCOMPAT=      F    compatible to vasp.4.4
   GGA_COMPAT  = T    GGA compatible to vasp.4.4-vasp.4.6
   LMAXPAW     = -100 max onsite density
   LMAXMIX     =    2 max onsite mixed and CHGCAR
   VOSKOWN=      0    Vosko Wilk Nusair interpolation
   ROPT   =    0.00000   0.00000
 Ionic relaxation
   EDIFFG = -.1E-01   stopping-criterion for IOM
   NSW    =    100    number of steps for IOM
   NBLOCK =      1;   KBLOCK =    100    inner block; outer block 
   IBRION =      2    ionic relax: 0-MD 1-quasi-New 2-CG
   NFREE  =      1    steps in history (QN), initial steepest desc. (CG)
   ISIF   =      4    stress and relaxation
   IWAVPR =     11    prediction:  0-non 1-charg 2-wave 3-comb
   ISYM   =      2    0-nonsym 1-usesym 2-fastsym
   LCORR  =      T    Harris-Foulkes like correction to forces

   POTIM  = 0.5000    time-step for ionic-motion
   TEIN   =    0.0    initial temperature
   TEBEG  =    0.0;   TEEND  =   0.0 temperature during run
   SMASS  =  -3.00    Nose mass-parameter (am)
   estimated Nose-frequenzy (Omega)   =  0.10E-29 period in steps = 0.13E+47 mass=  -0.320E-27a.u.
   SCALEE = 1.0000    scale energy and forces
   NPACO  =    256;   APACO  = 10.0  distance and # of slots for P.C.
   PSTRESS=    0.0 pullay stress

  Mass of Ions in am
   POMASS =  55.85195.08
  Ionic Valenz
   ZVAL   =  14.00 10.00
  Atomic Wigner-Seitz radii
   RWIGS  =  -1.00 -1.00
  virtual crystal weights 
   VCA    =   1.00  1.00
   NELECT =     156.0000    total number of electrons
   NUPDOWN=      -1.0000    fix difference up-down

 DOS related values:
   EMIN   =  10.00;   EMAX   =-10.00  energy-range for DOS
   EFERMI =   0.00;   METHOD = LEGACY      
   ISMEAR =     1;   SIGMA  =   0.20  broadening in eV -4-tet -1-fermi 0-gaus

 Electronic relaxation 2 (details)
   IALGO  =     58    algorithm
   LDIAG  =      T    sub-space diagonalisation (order eigenvalues)
   LSUBROT=      F    optimize rotation matrix (better conditioning)
   TURBO    =      0    0=normal 1=particle mesh
   IRESTART =      0    0=no restart 2=restart with 2 vectors
   NREBOOT  =      0    no. of reboots
   NMIN     =      0    reboot dimension
   EREF     =   0.00    reference energy to select bands
   IMIX   =      4    mixing-type and parameters
     AMIX     =   0.40;   BMIX     =  1.00
     AMIX_MAG =   1.60;   BMIX_MAG =  1.00
     AMIN     =   0.10
     WC   =   100.;   INIMIX=   1;  MIXPRE=   1;  MAXMIX= -45

 Intra band minimization:
   WEIMIN = 0.0010     energy-eigenvalue tresh-hold
   EBREAK =  0.20E-08  absolut break condition
   DEPER  =   0.30     relativ break condition  

   TIME   =   0.40     timestep for ELM

  volume/ion in A,a.u.               =      13.08        88.29
  Fermi-wavevector in a.u.,A,eV,Ry     =   1.633615  3.087085 36.309857  2.668699
  Thomas-Fermi vector in A             =   2.725391
 
 Write flags
   LWAVE        =      F    write WAVECAR
   LDOWNSAMPLE  =      F    k-point downsampling of WAVECAR
   LCHARG       =      T    write CHGCAR
   LVTOT        =      F    write LOCPOT, total local potential
   LVHAR        =      F    write LOCPOT, Hartree potential only
   WRT_POTENTIAL= false  ! write potential to hdf5 file
   LELF         =      F    write electronic localiz. function (ELF)
   LORBIT       =     11    0 simple, 1 ext, 2 COOP (PROOUT), +10 PAW based schemes


 Dipole corrections
   LMONO      =      F    monopole corrections only (constant potential shift)
   LDIPOL     =      F    correct potential (dipole corrections)
   IDIPOL     =      0    1-x, 2-y, 3-z, 4-all directions 
   EPSILON    =  1.0000000 bulk dielectric constant
   LVACPOTAV  =      F  vacuum potentials using an averaging scheme for the charge density
   VACPOTFLAT =  0.1000000 required flatness to determine vacuum potential
 Exchange correlation treatment:
   GGA     = PE    functional components
   XC_C    = 1    coefficients multiplying the functional components
   LIBXC   =     F    Libxc                    
   VOSKOWN =     0    Vosko Wilk Nusair interpolation
   LHFCALC =     F    Hartree Fock is set to
   LHFONE  =     F    Hartree Fock one center treatment
   AEXX    =    0.0000 exact exchange contribution

 Parameters of functionals:
   PE:
     No parameter
 
 Van der Waals corrections
   IVDW    =     0    specifies the selected vdW correction

 Linear response parameters
   LEPSILON=     F    determine dielectric tensor
   LRPA    =     F    only Hartree local field effects (RPA)
   LNABLA  =     F    use nabla operator in PAW spheres
   LVEL    =     F    velocity operator in full k-point grid
   CSHIFT  =0.1000    complex shift for real part using Kramers Kronig
   OMEGAMAX=  -1.0    maximum frequency
   DEG_THRESHOLD= 0.2000000E-02 threshold for treating states as degnerate
   RTIME   =   -0.100 relaxation time in fs
  (WPLASMAI=    0.000 imaginary part of plasma frequency in eV, 0.658/RTIME)
   DFIELD  = 0.0000000 0.0000000 0.0000000 field for delta impulse in time
 
  Optional k-point grid parameters
   LKPOINTS_OPT  =     F    use optional k-point grid
   KPOINTS_OPT_MODE=     1    mode for optional k-point grid
 
 Orbital magnetization related:
   ORBITALMAG=     F  switch on orbital magnetization
   LCHIMAG   =     F  perturbation theory with respect to B field
   DQ        =  0.001000  dq finite difference perturbation B field
   LLRAUG    =     F  two centre corrections for induced B field
   LBONE     =     F  B-component reconstruction in AE one-centre
   LVGVCALC  =     T  calculate vGv susceptibility
   LVGVAPPL  =     F  apply vGv susceptibility instead of pGv for G=0

 Random number generation:
   RANDOM_GENERATOR = DEFAULT
   PCG_SEED         = not used


--------------------------------------------------------------------------------------------------------


 conjugate gradient relaxation of ions
 charge density and potential will be updated during run
 spin polarized calculation
 Conjugate gradient for all bands (Freysoldt, et al. PRB 79, 241103 (2009))
 preconditioned conjugated gradient                                        
 perform sub-space diagonalisation
    before iterative eigenvector-optimisation
 modified Broyden-mixing scheme, WC =      100.0
 initial mixing is a Kerker type mixing with AMIX =  0.4000 and BMIX =      1.0000
 Hartree-type preconditioning will be used
 using additional bands           50
 reciprocal scheme for non local part
 use partial core corrections
 no Harris-corrections to forces 
 use gradient corrections 
 use of overlap-Matrix (Vanderbilt PP)
 Methfessel and Paxton  Order N= 1 SIGMA  =   0.20


--------------------------------------------------------------------------------------------------------


  energy-cutoff  :      520.00
  volume of cell :      157.00
      direct lattice vectors                 reciprocal lattice vectors
     3.739238819  0.000000000  0.000000000     0.267434108  0.000000000  0.000000000
     0.000000000  3.739238819  0.000000000     0.000000000  0.267434108  0.000000000
     0.000000000  0.000000000 11.228797372     0.000000000  0.000000000  0.089056732

  length of vectors
     3.739238819  3.739238819 11.228797372     0.267434108  0.267434108  0.089056732


 
 k-points in units of 2pi/SCALE and weight: pymatgen with grid density = 8800 / numb
   0.00000000  0.00000000  0.00000000       0.001
   0.02057185  0.00000000  0.00000000       0.006
   0.04114371  0.00000000  0.00000000       0.006
   0.06171556  0.00000000  0.00000000       0.006
   0.08228742  0.00000000  0.00000000       0.006
   0.10285927  0.00000000  0.00000000       0.006
   0.12343113  0.00000000  0.00000000       0.006
   0.02057185  0.02057185  0.00000000       0.006
   0.04114371  0.02057185  0.00000000       0.012
   0.06171556  0.02057185  0.00000000       0.012
   0.08228742  0.02057185  0.00000000       0.012
   0.10285927  0.02057185  0.00000000       0.012
   0.12343113  0.02057185  0.00000000       0.012
   0.04114371  0.04114371  0.00000000       0.006
   0.06171556  0.04114371  0.00000000       0.012
   0.08228742  0.04114371  0.00000000       0.012
   0.10285927  0.04114371  0.00000000       0.012
   0.12343113  0.04114371  0.00000000       0.012
   0.06171556  0.06171556  0.00000000       0.006
   0.08228742  0.06171556  0.00000000       0.012
   0.10285927  0.06171556  0.00000000       0.012
   0.12343113  0.06171556  0.00000000       0.012
   0.08228742  0.08228742  0.00000000       0.006
   0.10285927  0.08228742  0.00000000       0.012
   0.12343113  0.08228742  0.00000000       0.012
   0.10285927  0.10285927  0.00000000       0.006
   0.12343113  0.10285927  0.00000000       0.012
   0.12343113  0.12343113  0.00000000       0.006
   0.00000000  0.00000000  0.02226418       0.003
   0.02057185  0.00000000  0.02226418       0.012
   0.04114371  0.00000000  0.02226418       0.012
   0.06171556  0.00000000  0.02226418       0.012
   0.08228742  0.00000000  0.02226418       0.012
   0.10285927  0.00000000  0.02226418       0.012
   0.12343113  0.00000000  0.02226418       0.012
   0.02057185  0.02057185  0.02226418       0.012
   0.04114371  0.02057185  0.02226418       0.024
   0.06171556  0.02057185  0.02226418       0.024
   0.08228742  0.02057185  0.02226418       0.024
   0.10285927  0.02057185  0.02226418       0.024
   0.12343113  0.02057185  0.02226418       0.024
   0.04114371  0.04114371  0.02226418       0.012
   0.06171556  0.04114371  0.02226418       0.024
   0.08228742  0.04114371  0.02226418       0.024
   0.10285927  0.04114371  0.02226418       0.024
   0.12343113  0.04114371  0.02226418       0.024
   0.06171556  0.06171556  0.02226418       0.012
   0.08228742  0.06171556  0.02226418       0.024
   0.10285927  0.06171556  0.02226418       0.024
   0.12343113  0.06171556  0.02226418       0.024
   0.08228742  0.08228742  0.02226418       0.012
   0.10285927  0.08228742  0.02226418       0.024
   0.12343113  0.08228742  0.02226418       0.024
   0.10285927  0.10285927  0.02226418       0.012
   0.12343113  0.10285927  0.02226418       0.024
   0.12343113  0.12343113  0.02226418       0.012
   0.00000000  0.00000000  0.04452837       0.001
   0.02057185  0.00000000  0.04452837       0.006
   0.04114371  0.00000000  0.04452837       0.006
   0.06171556  0.00000000  0.04452837       0.006
   0.08228742  0.00000000  0.04452837       0.006
   0.10285927  0.00000000  0.04452837       0.006
   0.12343113  0.00000000  0.04452837       0.006
   0.02057185  0.02057185  0.04452837       0.006
   0.04114371  0.02057185  0.04452837       0.012
   0.06171556  0.02057185  0.04452837       0.012
   0.08228742  0.02057185  0.04452837       0.012
   0.10285927  0.02057185  0.04452837       0.012
   0.12343113  0.02057185  0.04452837       0.012
   0.04114371  0.04114371  0.04452837       0.006
   0.06171556  0.04114371  0.04452837       0.012
   0.08228742  0.04114371  0.04452837       0.012
   0.10285927  0.04114371  0.04452837       0.012
   0.12343113  0.04114371  0.04452837       0.012
   0.06171556  0.06171556  0.04452837       0.006
   0.08228742  0.06171556  0.04452837       0.012
   0.10285927  0.06171556  0.04452837       0.012
   0.12343113  0.06171556  0.04452837       0.012
   0.08228742  0.08228742  0.04452837       0.006
   0.10285927  0.08228742  0.04452837       0.012
   0.12343113  0.08228742  0.04452837       0.012
   0.10285927  0.10285927  0.04452837       0.006
   0.12343113  0.10285927  0.04452837       0.012
   0.12343113  0.12343113  0.04452837       0.006
 
 k-points in reciprocal lattice and weights: pymatgen with grid density = 8800 / numb
   0.00000000  0.00000000  0.00000000       0.001
   0.07692308  0.00000000  0.00000000       0.006
   0.15384615  0.00000000  0.00000000       0.006
   0.23076923  0.00000000  0.00000000       0.006
   0.30769231  0.00000000  0.00000000       0.006
   0.38461538  0.00000000  0.00000000       0.006
   0.46153846  0.00000000  0.00000000       0.006
   0.07692308  0.07692308  0.00000000       0.006
   0.15384615  0.07692308  0.00000000       0.012
   0.23076923  0.07692308  0.00000000       0.012
   0.30769231  0.07692308  0.00000000       0.012
   0.38461538  0.07692308  0.00000000       0.012
   0.46153846  0.07692308  0.00000000       0.012
   0.15384615  0.15384615  0.00000000       0.006
   0.23076923  0.15384615  0.00000000       0.012
   0.30769231  0.15384615  0.00000000       0.012
   0.38461538  0.15384615  0.00000000       0.012
   0.46153846  0.15384615  0.00000000       0.012
   0.23076923  0.23076923  0.00000000       0.006
   0.30769231  0.23076923  0.00000000       0.012
   0.38461538  0.23076923  0.00000000       0.012
   0.46153846  0.23076923  0.00000000       0.012
   0.30769231  0.30769231  0.00000000       0.006
   0.38461538  0.30769231  0.00000000       0.012
   0.46153846  0.30769231  0.00000000       0.012
   0.38461538  0.38461538  0.00000000       0.006
   0.46153846  0.38461538  0.00000000       0.012
   0.46153846  0.46153846  0.00000000       0.006
   0.00000000  0.00000000  0.25000000       0.003
   0.07692308  0.00000000  0.25000000       0.012
   0.15384615  0.00000000  0.25000000       0.012
   0.23076923  0.00000000  0.25000000       0.012
   0.30769231  0.00000000  0.25000000       0.012
   0.38461538  0.00000000  0.25000000       0.012
   0.46153846  0.00000000  0.25000000       0.012
   0.07692308  0.07692308  0.25000000       0.012
   0.15384615  0.07692308  0.25000000       0.024
   0.23076923  0.07692308  0.25000000       0.024
   0.30769231  0.07692308  0.25000000       0.024
   0.38461538  0.07692308  0.25000000       0.024
   0.46153846  0.07692308  0.25000000       0.024
   0.15384615  0.15384615  0.25000000       0.012
   0.23076923  0.15384615  0.25000000       0.024
   0.30769231  0.15384615  0.25000000       0.024
   0.38461538  0.15384615  0.25000000       0.024
   0.46153846  0.15384615  0.25000000       0.024
   0.23076923  0.23076923  0.25000000       0.012
   0.30769231  0.23076923  0.25000000       0.024
   0.38461538  0.23076923  0.25000000       0.024
   0.46153846  0.23076923  0.25000000       0.024
   0.30769231  0.30769231  0.25000000       0.012
   0.38461538  0.30769231  0.25000000       0.024
   0.46153846  0.30769231  0.25000000       0.024
   0.38461538  0.38461538  0.25000000       0.012
   0.46153846  0.38461538  0.25000000       0.024
   0.46153846  0.46153846  0.25000000       0.012
   0.00000000  0.00000000  0.50000000       0.001
   0.07692308  0.00000000  0.50000000       0.006
   0.15384615  0.00000000  0.50000000       0.006
   0.23076923  0.00000000  0.50000000       0.006
   0.30769231  0.00000000  0.50000000       0.006
   0.38461538  0.00000000  0.50000000       0.006
   0.46153846  0.00000000  0.50000000       0.006
   0.07692308  0.07692308  0.50000000       0.006
   0.15384615  0.07692308  0.50000000       0.012
   0.23076923  0.07692308  0.50000000       0.012
   0.30769231  0.07692308  0.50000000       0.012
   0.38461538  0.07692308  0.50000000       0.012
   0.46153846  0.07692308  0.50000000       0.012
   0.15384615  0.15384615  0.50000000       0.006
   0.23076923  0.15384615  0.50000000       0.012
   0.30769231  0.15384615  0.50000000       0.012
   0.38461538  0.15384615  0.50000000       0.012
   0.46153846  0.15384615  0.50000000       0.012
   0.23076923  0.23076923  0.50000000       0.006
   0.30769231  0.23076923  0.50000000       0.012
   0.38461538  0.23076923  0.50000000       0.012
   0.46153846  0.23076923  0.50000000       0.012
   0.30769231  0.30769231  0.50000000       0.006
   0.38461538  0.30769231  0.50000000       0.012
   0.46153846  0.30769231  0.50000000       0.012
   0.38461538  0.38461538  0.50000000       0.006
   0.46153846  0.38461538  0.50000000       0.012
   0.46153846  0.46153846  0.50000000       0.006
 
 position of ions in fractional coordinates (direct lattice) 
   0.00000000  0.50000000  0.16648500
   0.00000000  0.50000000  0.50000000
   0.00000000  0.50000000  0.83351500
   0.50000000  0.50000000  0.00000000
   0.50000000  0.50000000  0.33305797
   0.50000000  0.50000000  0.66694203
   0.50000000  0.00000000  0.16648500
   0.50000000  0.00000000  0.50000000
   0.50000000  0.00000000  0.83351500
   0.00000000  0.00000000  0.00000000
   0.00000000  0.00000000  0.33316915
   0.00000000  0.00000000  0.66683085
 
 position of ions in cartesian coordinates  (Angst):
   0.00000000  1.86961941  1.86942628
   0.00000000  1.86961941  5.61439869
   0.00000000  1.86961941  9.35937110
   1.86961941  1.86961941  0.00000000
   1.86961941  1.86961941  3.73984047
   1.86961941  1.86961941  7.48895690
   1.86961941  0.00000000  1.86942628
   1.86961941  0.00000000  5.61439869
   1.86961941  0.00000000  9.35937110
   0.00000000  0.00000000  0.00000000
   0.00000000  0.00000000  3.74108892
   0.00000000  0.00000000  7.48770845
 


--------------------------------------------------------------------------------------------------------


 k-point     1 :   0.0000 0.0000 0.0000  plane waves:    4193
 k-point     2 :   0.0769 0.0000 0.0000  plane waves:    4180
 k-point     3 :   0.1538 0.0000 0.0000  plane waves:    4184
 k-point     4 :   0.2308 0.0000 0.0000  plane waves:    4212
 k-point     5 :   0.3077 0.0000 0.0000  plane waves:    4218
 k-point     6 :   0.3846 0.0000 0.0000  plane waves:    4218
 k-point     7 :   0.4615 0.0000 0.0000  plane waves:    4220
 k-point     8 :   0.0769 0.0769 0.0000  plane waves:    4183
 k-point     9 :   0.1538 0.0769 0.0000  plane waves:    4194
 k-point    10 :   0.2308 0.0769 0.0000  plane waves:    4206
 k-point    11 :   0.3077 0.0769 0.0000  plane waves:    4221
 k-point    12 :   0.3846 0.0769 0.0000  plane waves:    4216
 k-point    13 :   0.4615 0.0769 0.0000  plane waves:    4246
 k-point    14 :   0.1538 0.1538 0.0000  plane waves:    4222
 k-point    15 :   0.2308 0.1538 0.0000  plane waves:    4207
 k-point    16 :   0.3077 0.1538 0.0000  plane waves:    4232
 k-point    17 :   0.3846 0.1538 0.0000  plane waves:    4240
 k-point    18 :   0.4615 0.1538 0.0000  plane waves:    4242
 k-point    19 :   0.2308 0.2308 0.0000  plane waves:    4250
 k-point    20 :   0.3077 0.2308 0.0000  plane waves:    4235
 k-point    21 :   0.3846 0.2308 0.0000  plane waves:    4244
 k-point    22 :   0.4615 0.2308 0.0000  plane waves:    4241
 k-point    23 :   0.3077 0.3077 0.0000  plane waves:    4242
 k-point    24 :   0.3846 0.3077 0.0000  plane waves:    4242
 k-point    25 :   0.4615 0.3077 0.0000  plane waves:    4237
 k-point    26 :   0.3846 0.3846 0.0000  plane waves:    4268
 k-point    27 :   0.4615 0.3846 0.0000  plane waves:    4235
 k-point    28 :   0.4615 0.4615 0.0000  plane waves:    4226
 k-point    29 :   0.0000 0.0000 0.2500  plane waves:    4190
 k-point    30 :   0.0769 0.0000 0.2500  plane waves:    4191
 k-point    31 :   0.1538 0.0000 0.2500  plane waves:    4196
 k-point    32 :   0.2308 0.0000 0.2500  plane waves:    4217
 k-point    33 :   0.3077 0.0000 0.2500  plane waves:    4207
 k-point    34 :   0.3846 0.0000 0.2500  plane waves:    4224
 k-point    35 :   0.4615 0.0000 0.2500  plane waves:    4240
 k-point    36 :   0.0769 0.0769 0.2500  plane waves:    4197
 k-point    37 :   0.1538 0.0769 0.2500  plane waves:    4211
 k-point    38 :   0.2308 0.0769 0.2500  plane waves:    4210
 k-point    39 :   0.3077 0.0769 0.2500  plane waves:    4206
 k-point    40 :   0.3846 0.0769 0.2500  plane waves:    4230
 k-point    41 :   0.4615 0.0769 0.2500  plane waves:    4231
 k-point    42 :   0.1538 0.1538 0.2500  plane waves:    4220
 k-point    43 :   0.2308 0.1538 0.2500  plane waves:    4220
 k-point    44 :   0.3077 0.1538 0.2500  plane waves:    4223
 k-point    45 :   0.3846 0.1538 0.2500  plane waves:    4227
 k-point    46 :   0.4615 0.1538 0.2500  plane waves:    4248
 k-point    47 :   0.2308 0.2308 0.2500  plane waves:    4217
 k-point    48 :   0.3077 0.2308 0.2500  plane waves:    4237
 k-point    49 :   0.3846 0.2308 0.2500  plane waves:    4235
 k-point    50 :   0.4615 0.2308 0.2500  plane waves:    4240
 k-point    51 :   0.3077 0.3077 0.2500  plane waves:    4253
 k-point    52 :   0.3846 0.3077 0.2500  plane waves:    4247
 k-point    53 :   0.4615 0.3077 0.2500  plane waves:    4243
 k-point    54 :   0.3846 0.3846 0.2500  plane waves:    4241
 k-point    55 :   0.4615 0.3846 0.2500  plane waves:    4242
 k-point    56 :   0.4615 0.4615 0.2500  plane waves:    4241
 k-point    57 :   0.0000 0.0000 0.5000  plane waves:    4210
 k-point    58 :   0.0769 0.0000 0.5000  plane waves:    4214
 k-point    59 :   0.1538 0.0000 0.5000  plane waves:    4226
 k-point    60 :   0.2308 0.0000 0.5000  plane waves:    4200
 k-point    61 :   0.3077 0.0000 0.5000  plane waves:    4206
 k-point    62 :   0.3846 0.0000 0.5000  plane waves:    4220
 k-point    63 :   0.4615 0.0000 0.5000  plane waves:    4228
 k-point    64 :   0.0769 0.0769 0.5000  plane waves:    4212
 k-point    65 :   0.1538 0.0769 0.5000  plane waves:    4226
 k-point    66 :   0.2308 0.0769 0.5000  plane waves:    4216
 k-point    67 :   0.3077 0.0769 0.5000  plane waves:    4208
 k-point    68 :   0.3846 0.0769 0.5000  plane waves:    4230
 k-point    69 :   0.4615 0.0769 0.5000  plane waves:    4244
 k-point    70 :   0.1538 0.1538 0.5000  plane waves:    4222
 k-point    71 :   0.2308 0.1538 0.5000  plane waves:    4224
 k-point    72 :   0.3077 0.1538 0.5000  plane waves:    4212
 k-point    73 :   0.3846 0.1538 0.5000  plane waves:    4234
 k-point    74 :   0.4615 0.1538 0.5000  plane waves:    4246
 k-point    75 :   0.2308 0.2308 0.5000  plane waves:    4228
 k-point    76 :   0.3077 0.2308 0.5000  plane waves:    4238
 k-point    77 :   0.3846 0.2308 0.5000  plane waves:    4236
 k-point    78 :   0.4615 0.2308 0.5000  plane waves:    4250
 k-point    79 :   0.3077 0.3077 0.5000  plane waves:    4248
 k-point    80 :   0.3846 0.3077 0.5000  plane waves:    4248
 k-point    81 :   0.4615 0.3077 0.5000  plane waves:    4246
 k-point    82 :   0.3846 0.3846 0.5000  plane waves:    4242
 k-point    83 :   0.4615 0.3846 0.5000  plane waves:    4228
 k-point    84 :   0.4615 0.4615 0.5000  plane waves:    4228

 maximum and minimum number of plane-waves per node :      4268     4180

 maximum number of plane-waves:      4268
 maximum index in each direction: 
   IXMAX=    6   IYMAX=    6   IZMAX=   20
   IXMIN=   -7   IYMIN=   -7   IZMIN=  -21


 serial   3D FFT for wavefunctions
 parallel 3D FFT for charge:
    minimum data exchange during FFTs selected (reduces bandwidth)


 total amount of memory used by VASP MPI-rank0   288171. kBytes
=======================================================================

   base      :      30000. kBytes
   nonl-proj :     104558. kBytes
   fftplans  :        888. kBytes
   grid      :       6813. kBytes
   one-center:        373. kBytes
   wavefun   :     145539. kBytes
 
     INWAV:  cpu time      0.0000: real time      0.0000
 Broyden mixing: mesh for mixing (old mesh)
   NGX = 13   NGY = 13   NGZ = 41
  (NGX  = 56   NGY  = 56   NGZ  =168)
  gives a total of   6929 points

 initial charge density was supplied:
 charge density of overlapping atoms calculated
 number of electron     156.0000000 magnetization      25.7280000
 charge density for first step will be calculated from the start-wavefunctions


--------------------------------------------------------------------------------------------------------


 Maximum index for augmentation-charges         1033 (set IRDMAX)


--------------------------------------------------------------------------------------------------------


 First call to EWALD:  gamma=   0.329
 Maximum number of real-space cells 4x 4x 2
 Maximum number of reciprocal cells 2x 2x 5

    FEWALD:  cpu time      0.0023: real time      0.0024


--------------------------------------- Ionic step        1  -------------------------------------------




--------------------------------------- Iteration      1(   1)  ---------------------------------------


    POTLOK:  cpu time      0.0358: real time      0.0370
    SETDIJ:  cpu time      0.0174: real time      0.0180
    TRIAL :  cpu time      5.8807: real time      5.9248
    CORREC:  cpu time      0.0037: real time      0.0037
    --------------------------------------------
      LOOP:  cpu time      6.0645: real time      6.1136

 eigenvalue-minimisations  : 43040
 total energy-change (2. order) : 0.1771318E+04  (-0.9172689E+04)
 number of electron     156.0000000 magnetization      25.7280000
 augmentation part      156.0000000 magnetization      25.7280000

 Free energy of the ion-electron system (eV)
  ---------------------------------------------------
  alpha Z        PSCENC =      1084.01356410
  Ewald energy   TEWEN  =    -18053.77326135
  -Hartree energ DENC   =     -6011.49250490
  -exchange      EXHF   =         0.00000000
  -V(xc)+E(xc)   XCENC  =       657.24386895
  PAW double counting   =     20093.67125896   -20817.57031571
  entropy T*S    EENTRO =        -0.00020846
  eigenvalues    EBANDS =       515.12236581
  atomic energy  EATOM  =     24304.10294433
  ---------------------------------------------------
  free energy    TOTEN  =      1771.31771174 eV

  energy without entropy =     1771.31792019  energy(sigma->0) =     1771.31778122


--------------------------------------------------------------------------------------------------------




--------------------------------------- Iteration      1(   2)  ---------------------------------------


    TRIAL :  cpu time      5.8653: real time      5.9086
    CORREC:  cpu time      0.0026: real time      0.0026
    --------------------------------------------
      LOOP:  cpu time      5.8843: real time      5.9332

 eigenvalue-minimisations  : 43008
 total energy-change (2. order) :-0.1764899E+04  (-0.1672577E+04)
 number of electron     156.0000000 magnetization      25.7280000
 augmentation part      156.0000000 magnetization      25.7280000

 Free energy of the ion-electron system (eV)
  ---------------------------------------------------
  alpha Z        PSCENC =      1084.01356410
  Ewald energy   TEWEN  =    -18053.77326135
  -Hartree energ DENC   =     -6011.49250490
  -exchange      EXHF   =         0.00000000
  -V(xc)+E(xc)   XCENC  =       657.24386895
  PAW double counting   =     20093.67125896   -20817.57031571
  entropy T*S    EENTRO =         0.00481863
  eigenvalues    EBANDS =     -1249.78187095
  atomic energy  EATOM  =     24304.10294433
  ---------------------------------------------------
  free energy    TOTEN  =         6.41850206 eV

  energy without entropy =        6.41368343  energy(sigma->0) =        6.41689585


--------------------------------------------------------------------------------------------------------




--------------------------------------- Iteration      1(   3)  ---------------------------------------


    TRIAL :  cpu time      7.0110: real time      7.0609
    CORREC:  cpu time      0.0025: real time      0.0025
    --------------------------------------------
      LOOP:  cpu time      7.0303: real time      7.0850

 eigenvalue-minimisations  : 50112
 total energy-change (2. order) :-0.1089862E+03  (-0.1072670E+03)
 number of electron     156.0000000 magnetization      25.7280000
 augmentation part      156.0000000 magnetization      25.7280000

 Free energy of the ion-electron system (eV)
  ---------------------------------------------------
  alpha Z        PSCENC =      1084.01356410
  Ewald energy   TEWEN  =    -18053.77326135
  -Hartree energ DENC   =     -6011.49250490
  -exchange      EXHF   =         0.00000000
  -V(xc)+E(xc)   XCENC  =       657.24386895
  PAW double counting   =     20093.67125896   -20817.57031571
  entropy T*S    EENTRO =        -0.01391943
  eigenvalues    EBANDS =     -1358.74934676
  atomic energy  EATOM  =     24304.10294433
  ---------------------------------------------------
  free energy    TOTEN  =      -102.56771181 eV

  energy without entropy =     -102.55379238  energy(sigma->0) =     -102.56307200


--------------------------------------------------------------------------------------------------------




--------------------------------------- Iteration      1(   4)  ---------------------------------------


    TRIAL :  cpu time      6.3129: real time      6.3561
    CORREC:  cpu time      0.0025: real time      0.0026
    --------------------------------------------
      LOOP:  cpu time      6.3320: real time      6.3800

 eigenvalue-minimisations  : 45984
 total energy-change (2. order) :-0.1592940E+01  (-0.1592551E+01)
 number of electron     156.0000000 magnetization      25.7280000
 augmentation part      156.0000000 magnetization      25.7280000

 Free energy of the ion-electron system (eV)
  ---------------------------------------------------
  alpha Z        PSCENC =      1084.01356410
  Ewald energy   TEWEN  =    -18053.77326135
  -Hartree energ DENC   =     -6011.49250490
  -exchange      EXHF   =         0.00000000
  -V(xc)+E(xc)   XCENC  =       657.24386895
  PAW double counting   =     20093.67125896   -20817.57031571
  entropy T*S    EENTRO =        -0.01408787
  eigenvalues    EBANDS =     -1360.34211842
  atomic energy  EATOM  =     24304.10294433
  ---------------------------------------------------
  free energy    TOTEN  =      -104.16065191 eV

  energy without entropy =     -104.14656404  energy(sigma->0) =     -104.15595595


--------------------------------------------------------------------------------------------------------




--------------------------------------- Iteration      1(   5)  ---------------------------------------


    TRIAL :  cpu time      7.4348: real time      7.4846
    CORREC:  cpu time      0.0025: real time      0.0026
    CHARGE:  cpu time      0.1798: real time      0.1814
    --------------------------------------------
      LOOP:  cpu time      7.6321: real time      7.6900

 eigenvalue-minimisations  : 52736
 total energy-change (2. order) :-0.3105913E-01  (-0.3105824E-01)
 number of electron     156.0000318 magnetization      22.1622256
 augmentation part       79.4167241 magnetization      15.7117316

 Free energy of the ion-electron system (eV)
  ---------------------------------------------------
  alpha Z        PSCENC =      1084.01356410
  Ewald energy   TEWEN  =    -18053.77326135
  -Hartree energ DENC   =     -6011.49250490
  -exchange      EXHF   =         0.00000000
  -V(xc)+E(xc)   XCENC  =       657.24386895
  PAW double counting   =     20093.67125896   -20817.57031571
  entropy T*S    EENTRO =        -0.01408825
  eigenvalues    EBANDS =     -1360.37317717
  atomic energy  EATOM  =     24304.10294433
  ---------------------------------------------------
  free energy    TOTEN  =      -104.19171104 eV

  energy without entropy =     -104.17762279  energy(sigma->0) =     -104.18701496


--------------------------------------------------------------------------------------------------------




--------------------------------------- Iteration      1(   6)  ---------------------------------------


    POTLOK:  cpu time      0.0219: real time      0.0222
    SETDIJ:  cpu time      0.0085: real time      0.0085
    TRIAL :  cpu time      2.8750: real time      2.9025
    CORREC:  cpu time      1.1052: real time      1.1158
    CHARGE:  cpu time      0.1675: real time      0.1685
    --------------------------------------------
      LOOP:  cpu time      4.1938: real time      4.2401

 eigenvalue-minimisations  :     0
 total energy-change (2. order) : 0.4724980E+02  (-0.2989281E+02)
 number of electron     156.0000333 magnetization      23.2517681
 augmentation part       83.5837841 magnetization      17.1027063

 Free energy of the ion-electron system (eV)
  ---------------------------------------------------
  alpha Z        PSCENC =      1084.01356410
  Ewald energy   TEWEN  =    -18053.77326135
  -Hartree energ DENC   =     -4903.86158909
  -exchange      EXHF   =         0.00000000
  -V(xc)+E(xc)   XCENC  =       611.29631254
  PAW double counting   =     21066.87722633   -21733.81893075
  entropy T*S    EENTRO =         0.01502478
  eigenvalues    EBANDS =     -2431.76408545
  atomic energy  EATOM  =     24304.10294433
  ---------------------------------------------------
  free energy    TOTEN  =       -56.94190760 eV

  energy without entropy =      -56.95693238  energy(sigma->0) =      -56.94691586


--------------------------------------------------------------------------------------------------------




--------------------------------------- Iteration      1(   7)  ---------------------------------------


    POTLOK:  cpu time      0.0216: real time      0.0218
    SETDIJ:  cpu time      0.0075: real time      0.0076
    TRIAL :  cpu time      2.8216: real time      2.8489
    CORREC:  cpu time      1.1607: real time      1.1727
    CHARGE:  cpu time      0.1664: real time      0.1675
    --------------------------------------------
      LOOP:  cpu time      4.1944: real time      4.2409

 eigenvalue-minimisations  :     0
 total energy-change (2. order) :-0.3005279E+02  (-0.1276125E+01)
 number of electron     156.0000333 magnetization      23.4614747
 augmentation part       83.8567517 magnetization      17.3083647

 Free energy of the ion-electron system (eV)
  ---------------------------------------------------
  alpha Z        PSCENC =      1084.01356410
  Ewald energy   TEWEN  =    -18053.77326135
  -Hartree energ DENC   =     -5496.63184434
  -exchange      EXHF   =         0.00000000
  -V(xc)+E(xc)   XCENC  =       635.99854681
  PAW double counting   =     21932.39348882   -22711.08793442
  entropy T*S    EENTRO =         0.01662345
  eigenvalues    EBANDS =     -1782.02522995
  atomic energy  EATOM  =     24304.10294433
  ---------------------------------------------------
  free energy    TOTEN  =       -86.99470122 eV

  energy without entropy =      -87.01132467  energy(sigma->0) =      -87.00024237


--------------------------------------------------------------------------------------------------------




--------------------------------------- Iteration      1(   8)  ---------------------------------------


    POTLOK:  cpu time      0.0214: real time      0.0216
    SETDIJ:  cpu time      0.0073: real time      0.0074
    TRIAL :  cpu time      2.9005: real time      2.9284
    CORREC:  cpu time      1.1050: real time      1.1165
    CHARGE:  cpu time      0.1618: real time      0.1628
    --------------------------------------------
      LOOP:  cpu time      4.2142: real time      4.2602

 eigenvalue-minimisations  :     0
 total energy-change (2. order) :-0.1237207E+01  (-0.3240722E+01)
 number of electron     156.0000333 magnetization      24.1996182
 augmentation part       84.6584902 magnetization      18.0401310

 Free energy of the ion-electron system (eV)
  ---------------------------------------------------
  alpha Z        PSCENC =      1084.01356410
  Ewald energy   TEWEN  =    -18053.77326135
  -Hartree energ DENC   =     -5531.97033316
  -exchange      EXHF   =         0.00000000
  -V(xc)+E(xc)   XCENC  =       637.61252228
  PAW double counting   =     22000.64742393   -22780.86143683
  entropy T*S    EENTRO =         0.03673963
  eigenvalues    EBANDS =     -1748.01995534
  atomic energy  EATOM  =     24304.10294433
  ---------------------------------------------------
  free energy    TOTEN  =       -88.23190859 eV

  energy without entropy =      -88.26864822  energy(sigma->0) =      -88.24415514


--------------------------------------------------------------------------------------------------------




--------------------------------------- Iteration      1(   9)  ---------------------------------------


    POTLOK:  cpu time      0.0215: real time      0.0218
    SETDIJ:  cpu time      0.0080: real time      0.0080
    TRIAL :  cpu time      2.7872: real time      2.8135
    CORREC:  cpu time      1.1136: real time      1.1251
    CHARGE:  cpu time      0.1629: real time      0.1638
    --------------------------------------------
      LOOP:  cpu time      4.1114: real time      4.1556

 eigenvalue-minimisations  :     0
 total energy-change (2. order) :-0.3550819E+01  (-0.3219147E+00)
 number of electron     156.0000333 magnetization      24.3426896
 augmentation part       84.6848948 magnetization      18.1629014

 Free energy of the ion-electron system (eV)
  ---------------------------------------------------
  alpha Z        PSCENC =      1084.01356410
  Ewald energy   TEWEN  =    -18053.77326135
  -Hartree energ DENC   =     -5626.76565267
  -exchange      EXHF   =         0.00000000
  -V(xc)+E(xc)   XCENC  =       642.31348924
  PAW double counting   =     22237.86258551   -23014.93135209
  entropy T*S    EENTRO =         0.03807039
  eigenvalues    EBANDS =     -1664.64178420
  atomic energy  EATOM  =     24304.10294433
  ---------------------------------------------------
  free energy    TOTEN  =       -91.78272750 eV

  energy without entropy =      -91.82079789  energy(sigma->0) =      -91.79541763


--------------------------------------------------------------------------------------------------------




--------------------------------------- Iteration      1(  10)  ---------------------------------------


    POTLOK:  cpu time      0.0216: real time      0.0218
    SETDIJ:  cpu time      0.0076: real time      0.0076
    TRIAL :  cpu time      2.8111: real time      2.8380
    CORREC:  cpu time      1.1167: real time      1.1280
    CHARGE:  cpu time      0.1595: real time      0.1604
    --------------------------------------------
      LOOP:  cpu time      4.1331: real time      4.1782

 eigenvalue-minimisations  :     0
 total energy-change (2. order) :-0.3190004E+00  (-0.9715420E+00)
 number of electron     156.0000331 magnetization      24.8070892
 augmentation part       84.7501510 magnetization      18.5751918

 Free energy of the ion-electron system (eV)
  ---------------------------------------------------
  alpha Z        PSCENC =      1084.01356410
  Ewald energy   TEWEN  =    -18053.77326135
  -Hartree energ DENC   =     -5629.07999263
  -exchange      EXHF   =         0.00000000
  -V(xc)+E(xc)   XCENC  =       642.50426621
  PAW double counting   =     22226.12492979   -22998.87164489
  entropy T*S    EENTRO =         0.03460369
  eigenvalues    EBANDS =     -1667.16060384
  atomic energy  EATOM  =     24304.10294433
  ---------------------------------------------------
  free energy    TOTEN  =       -92.10172789 eV

  energy without entropy =      -92.13633158  energy(sigma->0) =      -92.11326245


--------------------------------------------------------------------------------------------------------




--------------------------------------- Iteration      1(  11)  ---------------------------------------


    POTLOK:  cpu time      0.0213: real time      0.0216
    SETDIJ:  cpu time      0.0087: real time      0.0087
    TRIAL :  cpu time      2.8722: real time      2.9017
    CORREC:  cpu time      1.1106: real time      1.1223
    CHARGE:  cpu time      0.1585: real time      0.1595
    --------------------------------------------
      LOOP:  cpu time      4.1875: real time      4.2370

 eigenvalue-minimisations  :     0
 total energy-change (2. order) :-0.9728530E+00  (-0.1096585E+00)
 number of electron     156.0000331 magnetization      24.8530655
 augmentation part       84.7963994 magnetization      18.6258722

 Free energy of the ion-electron system (eV)
  ---------------------------------------------------
  alpha Z        PSCENC =      1084.01356410
  Ewald energy   TEWEN  =    -18053.77326135
  -Hartree energ DENC   =     -5635.14135900
  -exchange      EXHF   =         0.00000000
  -V(xc)+E(xc)   XCENC  =       643.03092636
  PAW double counting   =     22180.55116470   -22936.19236848
  entropy T*S    EENTRO =         0.03464343
  eigenvalues    EBANDS =     -1679.70079518
  atomic energy  EATOM  =     24304.10294433
  ---------------------------------------------------
  free energy    TOTEN  =       -93.07458084 eV

  energy without entropy =      -93.10922427  energy(sigma->0) =      -93.08612865


--------------------------------------------------------------------------------------------------------




--------------------------------------- Iteration      1(  12)  ---------------------------------------


    POTLOK:  cpu time      0.0220: real time      0.0222
    SETDIJ:  cpu time      0.0077: real time      0.0077
    TRIAL :  cpu time      2.7337: real time      2.7608
    CORREC:  cpu time      1.1136: real time      1.1256
    CHARGE:  cpu time      0.1597: real time      0.1607
    --------------------------------------------
      LOOP:  cpu time      4.0546: real time      4.0995

 eigenvalue-minimisations  :     0
 total energy-change (2. order) :-0.1097704E+00  (-0.1703196E+00)
 number of electron     156.0000332 magnetization      24.9139861
 augmentation part       84.9742026 magnetization      18.7220874

 Free energy of the ion-electron system (eV)
  ---------------------------------------------------
  alpha Z        PSCENC =      1084.01356410
  Ewald energy   TEWEN  =    -18053.77326135
  -Hartree energ DENC   =     -5642.65224390
  -exchange      EXHF   =         0.00000000
  -V(xc)+E(xc)   XCENC  =       643.34831352
  PAW double counting   =     22185.72151403   -22940.91419876
  entropy T*S    EENTRO =         0.02701461
  eigenvalues    EBANDS =     -1673.06562669
  atomic energy  EATOM  =     24304.10294433
  ---------------------------------------------------
  free energy    TOTEN  =       -93.18435129 eV

  energy without entropy =      -93.21136590  energy(sigma->0) =      -93.19335616


--------------------------------------------------------------------------------------------------------




--------------------------------------- Iteration      1(  13)  ---------------------------------------


    POTLOK:  cpu time      0.0218: real time      0.0220
    SETDIJ:  cpu time      0.0077: real time      0.0077
    TRIAL :  cpu time      2.8115: real time      2.8385
    CORREC:  cpu time      1.1073: real time      1.1191
    CHARGE:  cpu time      0.1588: real time      0.1596
    --------------------------------------------
      LOOP:  cpu time      4.1244: real time      4.1696

 eigenvalue-minimisations  :     0
 total energy-change (2. order) :-0.1696576E+00  (-0.3846310E-01)
 number of electron     156.0000332 magnetization      24.9416656
 augmentation part       85.0206338 magnetization      18.7587312

 Free energy of the ion-electron system (eV)
  ---------------------------------------------------
  alpha Z        PSCENC =      1084.01356410
  Ewald energy   TEWEN  =    -18053.77326135
  -Hartree energ DENC   =     -5672.16464765
  -exchange      EXHF   =         0.00000000
  -V(xc)+E(xc)   XCENC  =       644.53994435
  PAW double counting   =     22215.84331524   -22974.33375355
  entropy T*S    EENTRO =         0.02271864
  eigenvalues    EBANDS =     -1641.60912892
  atomic energy  EATOM  =     24304.10294433
  ---------------------------------------------------
  free energy    TOTEN  =       -93.35400885 eV

  energy without entropy =      -93.37672748  energy(sigma->0) =      -93.36158173


--------------------------------------------------------------------------------------------------------




--------------------------------------- Iteration      1(  14)  ---------------------------------------


    POTLOK:  cpu time      0.0216: real time      0.0218
    SETDIJ:  cpu time      0.0073: real time      0.0073
    TRIAL :  cpu time      2.8379: real time      2.8658
    CORREC:  cpu time      1.1150: real time      1.1264
    CHARGE:  cpu time      0.1994: real time      0.2006
    --------------------------------------------
      LOOP:  cpu time      4.1987: real time      4.2446

 eigenvalue-minimisations  :     0
 total energy-change (2. order) :-0.3783972E-01  (-0.4447035E-01)
 number of electron     156.0000332 magnetization      25.0002344
 augmentation part       85.0670384 magnetization      18.8247957

 Free energy of the ion-electron system (eV)
  ---------------------------------------------------
  alpha Z        PSCENC =      1084.01356410
  Ewald energy   TEWEN  =    -18053.77326135
  -Hartree energ DENC   =     -5678.91740671
  -exchange      EXHF   =         0.00000000
  -V(xc)+E(xc)   XCENC  =       644.84004587
  PAW double counting   =     22219.76820304   -22979.44372500
  entropy T*S    EENTRO =         0.01665224
  eigenvalues    EBANDS =     -1634.00493147
  atomic energy  EATOM  =     24304.10294433
  ---------------------------------------------------
  free energy    TOTEN  =       -93.39184857 eV

  energy without entropy =      -93.40850081  energy(sigma->0) =      -93.39739932


--------------------------------------------------------------------------------------------------------




--------------------------------------- Iteration      1(  15)  ---------------------------------------


    POTLOK:  cpu time      0.0219: real time      0.0222
    SETDIJ:  cpu time      0.0082: real time      0.0082
    TRIAL :  cpu time      2.7749: real time      2.8017
    CORREC:  cpu time      1.1916: real time      1.2041
    CHARGE:  cpu time      0.1580: real time      0.1590
    --------------------------------------------
      LOOP:  cpu time      4.1723: real time      4.2182

 eigenvalue-minimisations  :     0
 total energy-change (2. order) :-0.4358039E-01  (-0.2185040E-01)
 number of electron     156.0000332 magnetization      25.0678602
 augmentation part       85.0565513 magnetization      18.8900159

 Free energy of the ion-electron system (eV)
  ---------------------------------------------------
  alpha Z        PSCENC =      1084.01356410
  Ewald energy   TEWEN  =    -18053.77326135
  -Hartree energ DENC   =     -5684.23754213
  -exchange      EXHF   =         0.00000000
  -V(xc)+E(xc)   XCENC  =       645.12822175
  PAW double counting   =     22216.58962156   -22977.67337927
  entropy T*S    EENTRO =         0.01240149
  eigenvalues    EBANDS =     -1627.60225018
  atomic energy  EATOM  =     24304.10294433
  ---------------------------------------------------
  free energy    TOTEN  =       -93.43542896 eV

  energy without entropy =      -93.44783045  energy(sigma->0) =      -93.43956279


--------------------------------------------------------------------------------------------------------




--------------------------------------- Iteration      1(  16)  ---------------------------------------


    POTLOK:  cpu time      0.0218: real time      0.0220
    SETDIJ:  cpu time      0.0075: real time      0.0076
    TRIAL :  cpu time      2.8126: real time      2.8414
    CORREC:  cpu time      1.1183: real time      1.1304
    CHARGE:  cpu time      0.1575: real time      0.1588
    --------------------------------------------
      LOOP:  cpu time      4.1355: real time      4.1829

 eigenvalue-minimisations  :     0
 total energy-change (2. order) :-0.2169886E-01  (-0.2579441E-01)
 number of electron     156.0000331 magnetization      25.1578206
 augmentation part       85.0333028 magnetization      18.9787833

 Free energy of the ion-electron system (eV)
  ---------------------------------------------------
  alpha Z        PSCENC =      1084.01356410
  Ewald energy   TEWEN  =    -18053.77326135
  -Hartree energ DENC   =     -5679.53672077
  -exchange      EXHF   =         0.00000000
  -V(xc)+E(xc)   XCENC  =       645.04176518
  PAW double counting   =     22199.70130370   -22960.70150487
  entropy T*S    EENTRO =         0.00866268
  eigenvalues    EBANDS =     -1632.31761963
  atomic energy  EATOM  =     24304.10294433
  ---------------------------------------------------
  free energy    TOTEN  =       -93.45712782 eV

  energy without entropy =      -93.46579050  energy(sigma->0) =      -93.46001538


--------------------------------------------------------------------------------------------------------




--------------------------------------- Iteration      1(  17)  ---------------------------------------


    POTLOK:  cpu time      0.0219: real time      0.0221
    SETDIJ:  cpu time      0.0075: real time      0.0076
    TRIAL :  cpu time      2.7960: real time      2.8235
    CORREC:  cpu time      1.1229: real time      1.1346
    CHARGE:  cpu time      0.1572: real time      0.1581
    --------------------------------------------
      LOOP:  cpu time      4.1219: real time      4.1685

 eigenvalue-minimisations  :     0
 total energy-change (2. order) :-0.2514737E-01  (-0.6856070E-02)
 number of electron     156.0000331 magnetization      25.1947444
[...]
     78      10.9442     -0.00000
     79      10.9445     -0.00000
     80      10.9664     -0.00000
     81      10.9671     -0.00000
     82      11.1757     -0.00000
     83      11.1775     -0.00000
     84      11.4197     -0.00000
     85      11.4583     -0.00000
     86      11.5621     -0.00000
     87      11.5744     -0.00000
     88      11.6288     -0.00000
     89      11.6839     -0.00000
     90      11.7320     -0.00000
     91      11.7354     -0.00000
     92      12.1526     -0.00000
     93      12.1553     -0.00000
     94      12.5610     -0.00000
     95      12.5632     -0.00000
     96      12.5948     -0.00000
     97      12.5969     -0.00000
     98      13.0650     -0.00000
     99      13.0665     -0.00000
    100      15.4313      0.00000
    101      17.2619      0.00000
    102      17.3288      0.00000
    103      17.3738      0.00000
    104      18.2338      0.00000
    105      18.2344      0.00000
    106      18.9042      0.00000
    107      18.9095      0.00000
    108      19.4528      0.00000
    109      19.4580      0.00000
    110      19.9507      0.00000
    111      19.9528      0.00000
    112      24.3122      0.00000
    113      24.3162      0.00000
    114      24.8012      0.00000
    115      24.8071      0.00000
    116      25.1320      0.00000
    117      25.1385      0.00000
    118      25.9965      0.00000
    119      25.9995      0.00000
    120      27.1276      0.00000
    121      27.1334      0.00000
    122      27.1833      0.00000
    123      27.5645      0.00000
    124      28.5197      0.00000
    125      28.5207      0.00000
    126      28.9442      0.00000
    127      28.9468      0.00000
    128      29.5673      0.00000


--------------------------------------------------------------------------------------------------------


 soft charge-density along one line, spin component           1
         0         1         2         3         4         5         6         7         8         9
 total charge-density along one line
 
 soft charge-density along one line, spin component           2
         0         1         2         3         4         5         6         7         8         9
 total charge-density along one line
 
 pseudopotential strength for first ion, spin component:           1
-45.214   0.000  -0.000   7.714  -0.000   0.000   0.000   0.000
  0.000 -45.213   0.000  -0.000   7.714  -0.000   0.000   0.000
 -0.000   0.000 -45.107   0.000  -0.000   7.670   0.000   0.000
  7.714  -0.000   0.000   5.610  -0.000   0.000  -0.000  -0.000
 -0.000   7.714  -0.000  -0.000   5.610  -0.000  -0.000  -0.000
  0.000  -0.000   7.670   0.000  -0.000   5.619  -0.000  -0.000
  0.000   0.000   0.000  -0.000  -0.000  -0.000  -2.244   0.000
  0.000   0.000   0.000  -0.000  -0.000  -0.000   0.000  -2.323
 -0.000   0.000  -0.000   0.000  -0.000   0.000   0.000   0.000
  0.000   0.000   0.000  -0.000  -0.000  -0.000   0.000  -0.000
 -0.000  -0.000   0.000   0.000   0.000  -0.000   0.000  -0.000
  0.000   0.000   0.000  -0.000  -0.000  -0.000  -2.755   0.000
  0.000   0.000   0.000  -0.000  -0.000  -0.000   0.000  -2.833
 -0.000   0.000  -0.000   0.000  -0.000   0.000   0.000   0.000
  0.000   0.000   0.000  -0.000  -0.000  -0.000   0.000  -0.000
 -0.000  -0.000   0.000   0.000   0.000  -0.000   0.000  -0.000
 -0.000  -0.000  -0.000  -0.000  -0.000  -0.000   0.000  -0.000
 -0.000  -0.000  -0.000  -0.000  -0.000  -0.000   0.000  -0.000
 pseudopotential strength for first ion, spin component:           2
-42.840   0.000  -0.000   6.715  -0.000   0.000   0.000   0.000
  0.000 -42.839  -0.000  -0.000   6.715   0.000   0.000   0.000
 -0.000  -0.000 -42.800   0.000   0.000   6.698   0.000   0.000
  6.715  -0.000   0.000   5.891  -0.000   0.000  -0.000  -0.000
 -0.000   6.715   0.000  -0.000   5.891   0.000  -0.000  -0.000
  0.000   0.000   6.698   0.000   0.000   5.894  -0.000  -0.000
  0.000   0.000   0.000  -0.000  -0.000  -0.000  -0.366  -0.000
  0.000   0.000   0.000  -0.000  -0.000  -0.000  -0.000  -0.386
 -0.000   0.000  -0.000   0.000  -0.000   0.000   0.000   0.000
  0.000   0.000   0.000  -0.000  -0.000  -0.000   0.000  -0.000
 -0.000  -0.000   0.000   0.000  -0.000  -0.000   0.000  -0.000
  0.000   0.000   0.000  -0.000  -0.000  -0.000  -0.908  -0.000
  0.000   0.000   0.000  -0.000  -0.000  -0.000  -0.000  -0.927
 -0.000   0.000  -0.000   0.000  -0.000   0.000   0.000   0.000
  0.000   0.000   0.000  -0.000  -0.000  -0.000   0.000  -0.000
 -0.000  -0.000   0.000   0.000  -0.000  -0.000   0.000  -0.000
 -0.000  -0.000  -0.000  -0.000  -0.000  -0.000   0.000  -0.000
 -0.000  -0.000  -0.000  -0.000  -0.000  -0.000   0.000  -0.000
 total augmentation occupancy for first ion, spin component:           1
  1.992  -0.000   0.000  -0.026   0.000   0.000  -0.000   0.000   0.000   0.000   0.000   0.000  -0.000   0.000   0.000   0.000
 -0.000   1.992  -0.000   0.000  -0.026   0.000   0.000   0.000   0.000   0.000  -0.000   0.000   0.000  -0.000   0.000   0.000
  0.000  -0.000   1.992  -0.000   0.000  -0.026   0.000  -0.000   0.000   0.000   0.000   0.000  -0.000  -0.000  -0.000   0.000
 -0.026   0.000  -0.000   0.179   0.000   0.000   0.000   0.000   0.000   0.000   0.000  -0.000  -0.000   0.000   0.000  -0.000
  0.000  -0.026   0.000   0.000   0.179  -0.000  -0.000   0.000   0.000   0.000  -0.000   0.000   0.000  -0.000  -0.000   0.000
  0.000   0.000  -0.026   0.000  -0.000   0.160   0.000   0.000  -0.000   0.000  -0.000  -0.000   0.000   0.000  -0.000   0.000
 -0.000   0.000   0.000   0.000  -0.000   0.000   3.001   0.000  -0.000  -0.000   0.000  -1.676   0.000   0.000   0.000   0.000
  0.000   0.000  -0.000   0.000   0.000   0.000   0.000   3.348  -0.000   0.000  -0.000  -0.000  -2.242   0.000   0.000   0.000
  0.000   0.000   0.000   0.000   0.000  -0.000  -0.000  -0.000   3.421   0.000   0.170   0.000   0.000  -1.991   0.000  -0.094
  0.000   0.000   0.000   0.000   0.000   0.000  -0.000   0.000   0.000   2.996   0.000   0.000   0.000   0.000  -1.673  -0.000
  0.000  -0.000   0.000   0.000  -0.000  -0.000   0.000  -0.000   0.170   0.000   3.215  -0.000   0.000  -0.094   0.000  -1.875
  0.000   0.000   0.000  -0.000   0.000  -0.000  -1.676  -0.000   0.000   0.000  -0.000   1.758  -0.000   0.000  -0.000  -0.000
 -0.000   0.000  -0.000  -0.000   0.000   0.000   0.000  -2.242   0.000   0.000   0.000  -0.000   2.451  -0.000   0.000   0.000
  0.000  -0.000  -0.000   0.000  -0.000   0.000   0.000   0.000  -1.991   0.000  -0.094   0.000  -0.000   1.824  -0.000   0.019
  0.000   0.000  -0.000   0.000  -0.000  -0.000   0.000   0.000   0.000  -1.673   0.000  -0.000   0.000  -0.000   1.756  -0.000
  0.000   0.000   0.000  -0.000   0.000   0.000   0.000   0.000  -0.094  -0.000  -1.875  -0.000   0.000   0.019  -0.000   1.797
  0.000   0.000   0.000   0.000  -0.000   0.000   0.000   0.000  -0.104  -0.000   0.180   0.000   0.000   0.075   0.000  -0.130
 -0.000  -0.000   0.000  -0.000   0.000  -0.000   0.000   0.000   0.006   0.000  -0.011  -0.000   0.000  -0.004  -0.000   0.007
 total augmentation occupancy for first ion, spin component:           2
 -0.002   0.000   0.000  -0.009   0.000  -0.000   0.000  -0.000   0.000   0.000   0.000  -0.000   0.000   0.000   0.000   0.000
  0.000  -0.002   0.000   0.000  -0.009   0.000   0.000  -0.000  -0.000   0.000   0.000   0.000   0.000   0.000   0.000  -0.000
  0.000   0.000  -0.002   0.000   0.000  -0.010  -0.000   0.000   0.000  -0.000   0.000   0.000   0.000   0.000   0.000   0.000
 -0.009   0.000   0.000  -0.005  -0.000  -0.000   0.000   0.000  -0.000   0.000  -0.000   0.000  -0.000   0.000   0.000  -0.000
  0.000  -0.009   0.000  -0.000  -0.005   0.000  -0.000  -0.000   0.000   0.000  -0.000   0.000   0.000  -0.000   0.000   0.000
 -0.000   0.000  -0.010  -0.000   0.000  -0.011  -0.000  -0.000   0.000   0.000   0.000   0.000   0.000  -0.000  -0.000  -0.000
  0.000   0.000  -0.000   0.000  -0.000  -0.000   2.449   0.000   0.000  -0.000  -0.000  -1.073  -0.000   0.000  -0.000   0.000
 -0.000  -0.000   0.000   0.000  -0.000  -0.000   0.000   2.484   0.000   0.000   0.000   0.000  -1.013  -0.000   0.000   0.000
  0.000  -0.000   0.000  -0.000   0.000   0.000   0.000   0.000   2.781   0.000   0.096   0.000   0.000  -1.183   0.000  -0.093
  0.000   0.000  -0.000   0.000   0.000   0.000  -0.000   0.000   0.000   2.443  -0.000   0.000  -0.000   0.000  -1.069  -0.000
  0.000   0.000   0.000  -0.000  -0.000   0.000  -0.000   0.000   0.096  -0.000   2.661   0.000  -0.000  -0.093   0.000  -1.068
 -0.000   0.000   0.000   0.000   0.000   0.000  -1.073   0.000   0.000   0.000   0.000   0.267   0.000   0.000   0.000   0.000
  0.000   0.000   0.000  -0.000   0.000   0.000  -0.000  -1.013   0.000  -0.000  -0.000   0.000   0.160   0.000   0.000  -0.000
  0.000   0.000   0.000   0.000  -0.000  -0.000   0.000  -0.000  -1.183   0.000  -0.093   0.000   0.000   0.365  -0.000   0.108
  0.000   0.000   0.000   0.000   0.000  -0.000  -0.000   0.000   0.000  -1.069   0.000   0.000   0.000  -0.000   0.264  -0.000
  0.000  -0.000   0.000  -0.000   0.000  -0.000   0.000   0.000  -0.093  -0.000  -1.068   0.000  -0.000   0.108  -0.000   0.236
 -0.000  -0.000   0.000   0.000  -0.000   0.000   0.000   0.000  -0.033  -0.000   0.057  -0.000   0.000   0.033   0.000  -0.057
  0.000   0.000   0.000   0.000  -0.000   0.000   0.000   0.000   0.003   0.000  -0.005   0.000   0.000  -0.000  -0.000   0.001


------------------------ aborting loop because EDIFF is reached ----------------------------------------





 total charge

# of ion       s       p       d       tot
------------------------------------------
    1        0.345   6.322   6.019  12.686
    2        0.345   6.321   6.018  12.684
    3        0.345   6.322   6.019  12.686
    4        0.345   6.322   6.019  12.686
    5        0.345   6.321   6.018  12.685
    6        0.345   6.321   6.018  12.685
    7        0.345   6.322   6.019  12.686
    8        0.345   6.321   6.018  12.684
    9        0.345   6.322   6.019  12.686
   10        0.758   0.691   8.041   9.490
   11        0.757   0.690   8.040   9.488
   12        0.757   0.690   8.040   9.488
--------------------------------------------------
tot          5.378  58.965  78.286 142.630



 magnetization (x)

# of ion       s       p       d       tot
------------------------------------------
    1       -0.002  -0.017   2.765   2.746
    2       -0.002  -0.017   2.767   2.749
    3       -0.002  -0.017   2.765   2.746
    4       -0.002  -0.017   2.764   2.745
    5       -0.002  -0.017   2.767   2.748
    6       -0.002  -0.017   2.767   2.748
    7       -0.002  -0.017   2.765   2.746
    8       -0.002  -0.017   2.767   2.749
    9       -0.002  -0.017   2.765   2.746
   10       -0.042  -0.100   0.452   0.311
   11       -0.042  -0.100   0.452   0.311
   12       -0.042  -0.100   0.452   0.311
--------------------------------------------------
tot         -0.142  -0.449  26.249  25.657
 
    FORLOC:  cpu time      0.0009: real time      0.0009
    FORNL :  cpu time      2.3230: real time      2.3343
    STRESS:  cpu time      6.9705: real time      7.0200
    FORCOR:  cpu time      0.0203: real time      0.0204
    OFIELD:  cpu time      0.0001: real time      0.0001

  FORCE on cell =-STRESS in cart. coord.  units (eV):
  Direction    XX          YY          ZZ          XY          YZ          ZX
  --------------------------------------------------------------------------------------
  Alpha Z  1084.01356  1084.01356  1084.01356
  Ewald   -6017.59025 -6017.59025 -6018.64007     0.00000    -0.00000    -0.00000
  Hartree  1889.53350  1889.53350  1888.93270    -0.00000    -0.00000    -0.00000
  E(xc)    -944.50700  -944.50700  -944.50884    -0.00000    -0.00000     0.00000
  Local    1073.02735  1073.02735  1074.48535    -0.00000    -0.00000     0.00000
  n-local  -215.19125  -229.58110  -222.33126    14.81904    -0.12329    -0.02805
  augment  1439.18472  1439.18472  1439.22612     0.00000    -0.00000    -0.00000
  Kinetic  1700.64546  1695.32460  1698.07057     1.51618     0.21756     0.87034
  Fock        0.00000     0.00000     0.00000     0.00000     0.00000     0.00000
  -------------------------------------------------------------------------------------
  Total      -0.73926    -0.73926    -0.75187     0.00000    -0.00000     0.00000
  in kB      -7.54412    -7.54412    -7.67281     0.00000    -0.00000     0.00000
  external pressure =       -7.59 kB  Pullay stress =        0.00 kB


 VOLUME and BASIS-vectors are now :
 -----------------------------------------------------------------------------
  energy-cutoff  :      520.00
  volume of cell :      157.00
      direct lattice vectors                 reciprocal lattice vectors
     3.739319671  0.000000000 -0.000000000     0.267428326  0.000000000  0.000000000
     0.000000000  3.739319671  0.000000000     0.000000000  0.267428326  0.000000000
    -0.000000000 -0.000000000 11.228311801     0.000000000  0.000000000  0.089060583

  length of vectors
     3.739319671  3.739319671 11.228311801     0.267428326  0.267428326  0.089060583


 FORCES acting on ions:
    Electron-Ion                     Ewald-Force                    Non-Local-Force
 -----------------------------------------------------------------------------------------------
   0.211E-11 -.528E-11 -.264E+01   -.179E-13 0.117E-13 0.264E+01   0.553E-21 -.209E-20 0.146E-02
   0.210E-11 -.304E-11 0.117E-10   -.343E-13 0.781E-14 -.227E-12   -.583E-25 -.120E-23 -.402E-23
   0.211E-11 0.101E-10 0.264E+01   -.276E-13 0.524E-14 -.264E+01   -.822E-21 0.185E-20 -.146E-02
   0.992E-12 0.736E-11 -.864E-12   0.161E-13 0.744E-14 0.227E-12   -.512E-24 0.995E-24 -.368E-26
   0.985E-12 -.429E-11 -.418E+01   0.658E-13 0.446E-14 0.417E+01   -.121E-20 -.190E-20 0.146E-01
   0.985E-12 -.357E-11 0.418E+01   -.428E-13 0.267E-14 -.417E+01   0.676E-21 0.241E-20 -.146E-01
   0.996E-12 0.000E+00 -.264E+01   0.270E-13 0.525E-17 0.264E+01   0.262E-20 -.199E-20 0.146E-02
   0.995E-12 0.375E-14 0.601E-11   0.274E-13 -.125E-13 -.227E-12   -.981E-24 -.355E-25 -.404E-23
   0.990E-12 0.247E-13 0.264E+01   0.331E-13 0.959E-14 -.264E+01   -.208E-20 0.141E-20 -.146E-02
   0.232E-12 -.250E-13 0.164E-11   -.322E-13 -.812E-14 0.114E-12   -.650E-24 0.958E-24 -.496E-24
   0.232E-12 -.251E-13 -.243E+01   -.698E-13 -.290E-13 0.243E+01   0.244E-20 -.210E-21 0.340E-02
   0.232E-12 -.234E-13 0.243E+01   0.704E-13 -.424E-14 -.243E+01   -.247E-20 0.817E-21 -.340E-02
 -----------------------------------------------------------------------------------------------
   0.131E-10 0.124E-11 0.267E-10   0.152E-13 -.489E-14 -.152E-12   -.283E-21 0.296E-21 -.434E-18
 
 
 POSITION                                       TOTAL-FORCE (eV/Angst)
 -----------------------------------------------------------------------------------
      3.73932      1.86966      1.87031        -0.000000     -0.000000      0.002203
      3.73932      1.86966      5.61416         0.000000     -0.000000     -0.000000
      3.73932      1.86966      9.35800         0.000000      0.000000     -0.002203
      1.86966      1.86966     11.22831        -0.000000     -0.000000     -0.000000
      1.86966      1.86966      3.74053        -0.000000     -0.000000      0.004469
      1.86966      1.86966      7.48778         0.000000      0.000000     -0.004469
      1.86966     -0.00000      1.87031        -0.000000     -0.000000      0.002203
      1.86966     -0.00000      5.61416        -0.000000     -0.000000     -0.000000
      1.86966     -0.00000      9.35800         0.000000      0.000000     -0.002203
      3.73932     -0.00000     11.22831         0.000000     -0.000000     -0.000000
      3.73932     -0.00000      3.74177        -0.000000     -0.000000      0.001618
      3.73932     -0.00000      7.48654         0.000000      0.000000     -0.001618
 -----------------------------------------------------------------------------------
    total drift:                                0.000000      0.000000      0.000000


--------------------------------------------------------------------------------------------------------



  FREE ENERGIE OF THE ION-ELECTRON SYSTEM (eV)
  ---------------------------------------------------
  free  energy   TOTEN  =       -93.52459215 eV

  energy  without entropy=      -93.52558856  energy(sigma->0) =      -93.52492428
 
 d Force = 0.7764424E-04[ 0.188E-04, 0.136E-03]  d Energy = 0.4738960E-04 0.303E-04
 d Force = 0.2856928E-01[ 0.214E-01, 0.358E-01]  d Ewald  = 0.2861810E-01-0.488E-04


--------------------------------------------------------------------------------------------------------


    POTLOK:  cpu time      0.4142: real time      0.4216


--------------------------------------------------------------------------------------------------------


 Steepest descent step on ions:
 trial-energy change:   -0.000047  1 .order   -0.000078   -0.000137   -0.000019
  (g-gl).g = 0.137E-03      g.g   = 0.137E-03  gl.gl    = 0.000E+00
 g(Force)  = 0.136E-03   g(Stress)= 0.698E-06 ortho     = 0.000E+00
 gamma     =   0.00000
 trial     =   1.00000
 opt step  =   1.16450  (harmonic =   1.16450) maximal distance =0.00112138
 next E    =   -93.524625   (d E  =  -0.00008)


--------------------------------------------------------------------------------------------------------


  
 reached required accuracy - stopping structural energy minimisation
     LOOP+:  cpu time     70.1408: real time     71.0137
    4ORBIT:  cpu time      0.0000: real time      0.0000



 total charge

# of ion       s       p       d       tot
------------------------------------------
    1        0.345   6.322   6.019  12.686
    2        0.345   6.321   6.018  12.684
    3        0.345   6.322   6.019  12.686
    4        0.345   6.322   6.019  12.686
    5        0.345   6.321   6.018  12.685
    6        0.345   6.321   6.018  12.685
    7        0.345   6.322   6.019  12.686
    8        0.345   6.321   6.018  12.684
    9        0.345   6.322   6.019  12.686
   10        0.758   0.691   8.041   9.490
   11        0.757   0.690   8.040   9.488
   12        0.757   0.690   8.040   9.488
--------------------------------------------------
tot          5.378  58.965  78.286 142.630



 magnetization (x)

# of ion       s       p       d       tot
------------------------------------------
    1       -0.002  -0.017   2.765   2.746
    2       -0.002  -0.017   2.767   2.749
    3       -0.002  -0.017   2.765   2.746
    4       -0.002  -0.017   2.764   2.745
    5       -0.002  -0.017   2.767   2.748
    6       -0.002  -0.017   2.767   2.748
    7       -0.002  -0.017   2.765   2.746
    8       -0.002  -0.017   2.767   2.749
    9       -0.002  -0.017   2.765   2.746
   10       -0.042  -0.100   0.452   0.311
   11       -0.042  -0.100   0.452   0.311
   12       -0.042  -0.100   0.452   0.311
--------------------------------------------------
tot         -0.142  -0.449  26.249  25.657
 

 total amount of memory used by VASP MPI-rank0   288171. kBytes
=======================================================================

   base      :      30000. kBytes
   nonl-proj :     104558. kBytes
   fftplans  :        888. kBytes
   grid      :       6813. kBytes
   one-center:        373. kBytes
   wavefun   :     145539. kBytes
 
  
  
 General timing and accounting informations for this job:
 ========================================================
  
                  Total CPU time used (sec):      268.842
                            User time (sec):      262.266
                          System time (sec):        6.575
                         Elapsed time (sec):      277.731
  
                   Maximum memory used (kb):     1209484.
                   Average memory used (kb):          N/A
  
                          Minor page faults:       194297
                          Major page faults:          194
                 Voluntary context switches:         9332
