       N       E                     dE             d eps       ncg     rms          ort
DAV:   1     0.173719032205E+04    0.17372E+04   -0.93856E+04  8064   0.250E+03
DAV:   2     0.941881479973E+01   -0.17278E+04   -0.16977E+04  8064   0.602E+02
DAV:   3    -0.102591312527E+03   -0.11201E+03   -0.11079E+03  8064   0.159E+02
DAV:   4    -0.105024497232E+03   -0.24332E+01   -0.24304E+01  8064   0.249E+01
DAV:   5    -0.105081341930E+03   -0.56845E-01   -0.56829E-01  8064   0.380E+00
SDA:   6    -0.517766422182E+02    0.53305E+02   -0.56829E-01  8064   0.465E+03 0.000E+00
CGA:   7    -0.774099420891E+02   -0.25633E+02   -0.22074E+02  8064   0.235E+03 0.875E+02
CGA:   8    -0.863844976112E+02   -0.89746E+01   -0.75200E+01  8064   0.377E+02 0.763E+02
CGA:   9    -0.901328136524E+02   -0.37483E+01   -0.37969E+01  8064   0.238E+02-0.188E+00
CGA:  10    -0.908344870672E+02   -0.70167E+00   -0.61442E+00  8064   0.111E+02 0.341E+01
CGA:  11    -0.918650728597E+02   -0.10306E+01   -0.10216E+01  8064   0.138E+02 0.949E-01
CGA:  12    -0.922041587646E+02   -0.33909E+00   -0.34194E+00  8064   0.418E+01 0.597E-01
CGA:  13    -0.924581679624E+02   -0.25401E+00   -0.26144E+00  8064   0.479E+01-0.684E-01
CGA:  14    -0.926234677391E+02   -0.16530E+00   -0.17302E+00  8064   0.409E+01-0.180E+00
CGA:  15    -0.929816826957E+02   -0.35821E+00   -0.35743E+00  8064   0.459E+01-0.708E-02
CGA:  16    -0.930852528803E+02   -0.10357E+00   -0.10805E+00  8064   0.876E+00-0.139E+00
CGA:  17    -0.931842013588E+02   -0.98948E-01   -0.98981E-01  8064   0.171E+01 0.134E-02
CGA:  18    -0.932350646860E+02   -0.50863E-01   -0.52501E-01  8064   0.514E+00-0.492E-01
CGA:  19    -0.932931322599E+02   -0.58068E-01   -0.58056E-01  8064   0.541E+00-0.398E-03
CGA:  20    -0.933099608395E+02   -0.16829E-01   -0.17339E-01  8064   0.227E+00-0.139E-01
CGA:  21    -0.933272989409E+02   -0.17338E-01   -0.17445E-01  8064   0.150E+00-0.176E-03
CGA:  22    -0.933425539485E+02   -0.15255E-01   -0.15281E-01  8064   0.315E+00 0.413E-03
CGA:  23    -0.933550094384E+02   -0.12455E-01   -0.12774E-01  8064   0.457E-01-0.556E-02
CGA:  24    -0.933598344147E+02   -0.48250E-02   -0.48288E-02  8064   0.557E-01 0.213E-03
CGA:  25    -0.933623815300E+02   -0.25471E-02   -0.25646E-02  8064   0.428E-01-0.164E-03
CGA:  26    -0.933665215182E+02   -0.41400E-02   -0.41434E-02  8064   0.224E-01 0.705E-04
CGA:  27    -0.933686429959E+02   -0.21215E-02   -0.21229E-02  8064   0.269E-01-0.145E-04
CGA:  28    -0.933695961401E+02   -0.95314E-03   -0.95719E-03  8064   0.689E-02-0.159E-03
CGA:  29    -0.933709836124E+02   -0.13875E-02   -0.13942E-02  8064   0.106E-01-0.690E-04
CGA:  30    -0.933715593030E+02   -0.57569E-03   -0.57574E-03  8064   0.799E-02-0.910E-05
CGA:  31    -0.933719314650E+02   -0.37216E-03   -0.37321E-03  8064   0.244E-02-0.190E-04
CGA:  32    -0.933722919076E+02   -0.36044E-03   -0.36145E-03  8064   0.280E-02-0.222E-04
CGA:  33    -0.933724084522E+02   -0.11654E-03   -0.11534E-03  8064   0.203E-02-0.160E-04
CGA:  34    -0.933726166079E+02   -0.20816E-03   -0.20795E-03  8064   0.829E-03-0.545E-04
CGA:  35    -0.933726557136E+02   -0.39106E-04   -0.38469E-04  8064   0.774E-03-0.867E-05
CGA:  36    -0.933727084312E+02   -0.52718E-04   -0.52264E-04  8064   0.516E-03-0.107E-04
SDA:  37    -0.933727571135E+02   -0.48682E-04   -0.48650E-04  8064   0.362E-03-0.413E-05
CGA:  38    -0.933727683842E+02   -0.11271E-04   -0.11376E-04  8064   0.164E-03 0.245E-05
CGA:  39    -0.933727934664E+02   -0.25082E-04   -0.24646E-04  8064   0.151E-03 0.935E-05
CGA:  40    -0.933728002523E+02   -0.67859E-05   -0.69159E-05  8064   0.137E-03 0.321E-05
CGA:  41    -0.933728116043E+02   -0.11352E-04   -0.11419E-04  8064   0.649E-04 0.507E-05
CGA:  42    -0.933728173765E+02   -0.57722E-05   -0.57983E-05  8064   0.162E-04 0.319E-05
CGA:  43    -0.933728194494E+02   -0.20729E-05   -0.20394E-05  8064   0.311E-04 0.209E-05
CGA:  44    -0.933728208611E+02   -0.14117E-05   -0.14639E-05  8064   0.154E-04 0.160E-05
CGA:  45    -0.933728221388E+02   -0.12776E-05   -0.12880E-05  8064   0.686E-05 0.128E-05
CGA:  46    -0.933728227364E+02   -0.59763E-06   -0.59648E-06  8064   0.139E-04 0.476E-06
   1 F= -.93372823E+02 E0= -.93376030E+02  d E =-.933728E+02  mag=     2.6764
       N       E                     dE             d eps       ncg     rms          ort
SDA:   1    -0.933614975945E+02    0.11325E-01    0.00000E+00  8064   0.570E-01 0.000E+00
CGA:   2    -0.933651852073E+02   -0.36876E-02   -0.36881E-02  8064   0.689E-01-0.955E-05
CGA:   3    -0.933683878717E+02   -0.32027E-02   -0.32017E-02  8064   0.181E-01 0.579E-05
CGA:   4    -0.933698200969E+02   -0.14322E-02   -0.14323E-02  8064   0.369E-01-0.943E-06
CGA:   5    -0.933719253989E+02   -0.21053E-02   -0.21055E-02  8064   0.758E-02 0.155E-05
CGA:   6    -0.933724760128E+02   -0.55061E-03   -0.55062E-03  8064   0.267E-02 0.148E-05
CGA:   7    -0.933726886127E+02   -0.21260E-03   -0.21260E-03  8064   0.420E-02-0.102E-05
CGA:   8    -0.933728773200E+02   -0.18871E-03   -0.18869E-03  8064   0.831E-03-0.997E-06
CGA:   9    -0.933729160604E+02   -0.38740E-04   -0.38744E-04  8064   0.643E-03 0.269E-07
CGA:  10    -0.933729553639E+02   -0.39304E-04   -0.39297E-04  8064   0.429E-03-0.315E-06
CGA:  11    -0.933729927519E+02   -0.37388E-04   -0.37391E-04  8064   0.101E-03-0.487E-06
CGA:  12    -0.933729994027E+02   -0.66508E-05   -0.66519E-05  8064   0.179E-03 0.112E-06
CGA:  13    -0.933730129912E+02   -0.13589E-04   -0.13592E-04  8064   0.648E-04 0.630E-06
CGA:  14    -0.933730154630E+02   -0.24718E-05   -0.24742E-05  8064   0.371E-04 0.607E-07
CGA:  15    -0.933730185468E+02   -0.30838E-05   -0.30849E-05  8064   0.268E-04-0.268E-06
CGA:  16    -0.933730213045E+02   -0.27577E-05   -0.27579E-05  8064   0.205E-04-0.329E-07
CGA:  17    -0.933730219211E+02   -0.61658E-06   -0.61541E-06  8064   0.621E-05-0.106E-07
   2 F= -.93373022E+02 E0= -.93376155E+02  d E =-.199185E-03  mag=     2.6718
       N       E                     dE             d eps       ncg     rms          ort
SDA:   1    -0.932686649978E+02    0.10436E+00    0.00000E+00  8064   0.555E+00 0.000E+00
CGA:   2    -0.933001155531E+02   -0.31451E-01   -0.31465E-01  8064   0.589E+00-0.417E-05
CGA:   3    -0.933314706870E+02   -0.31355E-01   -0.31345E-01  8064   0.167E+00-0.226E-04
CGA:   4    -0.933439432595E+02   -0.12473E-01   -0.12473E-01  8064   0.321E+00 0.561E-05
CGA:   5    -0.933620856805E+02   -0.18142E-01   -0.18145E-01  8064   0.898E-01-0.860E-05
CGA:   6    -0.933682181349E+02   -0.61325E-02   -0.61320E-02  8064   0.248E-01-0.222E-04
CGA:   7    -0.933699880060E+02   -0.17699E-02   -0.17699E-02  8064   0.354E-01 0.424E-05
CGA:   8    -0.933719102548E+02   -0.19222E-02   -0.19223E-02  8064   0.101E-01-0.629E-05
CGA:   9    -0.933723585301E+02   -0.44828E-03   -0.44825E-03  8064   0.631E-02-0.477E-06
CGA:  10    -0.933726615336E+02   -0.30300E-03   -0.30299E-03  8064   0.346E-02 0.910E-07
CGA:  11    -0.933730713395E+02   -0.40981E-03   -0.40980E-03  8064   0.114E-02 0.179E-06
CGA:  12    -0.933731252822E+02   -0.53943E-04   -0.53968E-04  8064   0.119E-02 0.880E-06
CGA:  13    -0.933732492658E+02   -0.12398E-03   -0.12383E-03  8064   0.884E-03 0.488E-05
CGA:  14    -0.933732789356E+02   -0.29670E-04   -0.29694E-04  8064   0.363E-03 0.714E-06
CGA:  15    -0.933733059935E+02   -0.27058E-04   -0.27061E-04  8064   0.222E-03-0.102E-05
CGA:  16    -0.933733313605E+02   -0.25367E-04   -0.25400E-04  8064   0.269E-03-0.769E-06
CGA:  17    -0.933733402907E+02   -0.89303E-05   -0.89234E-05  8064   0.670E-04-0.151E-06
CGA:  18    -0.933733452788E+02   -0.49881E-05   -0.49874E-05  8064   0.806E-04 0.589E-06
CGA:  19    -0.933733494197E+02   -0.41409E-05   -0.41545E-05  8064   0.536E-04 0.683E-06
CGA:  20    -0.933733533446E+02   -0.39249E-05   -0.39267E-05  8064   0.155E-04 0.126E-07
CGA:  21    -0.933733545816E+02   -0.12370E-05   -0.12486E-05  8064   0.268E-04-0.112E-05
CGA:  22    -0.933733557861E+02   -0.12045E-05   -0.11712E-05  8064   0.728E-05-0.131E-05
CGA:  23    -0.933733561896E+02   -0.40351E-06   -0.40586E-06  8064   0.809E-05 0.229E-06
   3 F= -.93373356E+02 E0= -.93376219E+02  d E =-.533453E-03  mag=     2.6547
       N       E                     dE             d eps       ncg     rms          ort
SDA:   1    -0.933702753790E+02    0.30804E-02    0.00000E+00  8064   0.161E-01 0.000E+00
CGA:   2    -0.933712321522E+02   -0.95677E-03   -0.95679E-03  8064   0.169E-01 0.146E-05
CGA:   3    -0.933721478736E+02   -0.91572E-03   -0.91576E-03  8064   0.422E-02-0.278E-06
CGA:   4    -0.933728014560E+02   -0.65358E-03   -0.65391E-03  8064   0.629E-02-0.408E-05
CGA:   5    -0.933730758596E+02   -0.27440E-03   -0.27434E-03  8064   0.356E-02-0.197E-05
CGA:   6    -0.933732047633E+02   -0.12890E-03   -0.12889E-03  8064   0.642E-03 0.374E-06
CGA:   7    -0.933732789455E+02   -0.74182E-04   -0.74122E-04  8064   0.120E-02 0.122E-05
CGA:   8    -0.933733245763E+02   -0.45631E-04   -0.45640E-04  8064   0.111E-03 0.307E-06
CGA:   9    -0.933733434951E+02   -0.18919E-04   -0.18872E-04  8064   0.161E-03 0.452E-06
CGA:  10    -0.933733492481E+02   -0.57531E-05   -0.57476E-05  8064   0.669E-04-0.146E-06
CGA:  11    -0.933733526645E+02   -0.34163E-05   -0.34115E-05  8064   0.328E-04-0.220E-06
CGA:  12    -0.933733552699E+02   -0.26054E-05   -0.26049E-05  8064   0.523E-04-0.497E-07
CGA:  13    -0.933733581309E+02   -0.28610E-05   -0.28583E-05  8064   0.775E-05-0.109E-06
CGA:  14    -0.933733590332E+02   -0.90238E-06   -0.89668E-06  8064   0.121E-04 0.862E-07
   4 F= -.93373359E+02 E0= -.93376258E+02  d E =-.536297E-03  mag=     2.6570
       N       E                     dE             d eps       ncg     rms          ort
SDA:   1    -0.933618095731E+02    0.11549E-01    0.00000E+00  8064   0.736E-01 0.000E+00
CGA:   2    -0.933643380951E+02   -0.25285E-02   -0.25300E-02  8064   0.484E-01-0.378E-04
CGA:   3    -0.933681707286E+02   -0.38326E-02   -0.38327E-02  8064   0.261E-01-0.757E-05
CGA:   4    -0.933694904919E+02   -0.13198E-02   -0.13197E-02  8064   0.249E-01 0.736E-06
CGA:   5    -0.933715400996E+02   -0.20496E-02   -0.20496E-02  8064   0.160E-01 0.200E-05
CGA:   6    -0.933726583015E+02   -0.11182E-02   -0.11182E-02  8064   0.384E-02 0.143E-05
CGA:   7    -0.933728291451E+02   -0.17084E-03   -0.17084E-03  8064   0.406E-02-0.938E-06
CGA:   8    -0.933731670193E+02   -0.33787E-03   -0.33788E-03  8064   0.152E-02-0.881E-06
CGA:   9    -0.933732382025E+02   -0.71183E-04   -0.71176E-04  8064   0.105E-02-0.407E-06
CGA:  10    -0.933733039517E+02   -0.65749E-04   -0.65739E-04  8064   0.601E-03-0.144E-05
CGA:  11    -0.933733668967E+02   -0.62945E-04   -0.62958E-04  8064   0.471E-03-0.331E-06
CGA:  12    -0.933733811945E+02   -0.14298E-04   -0.14299E-04  8064   0.199E-03 0.173E-07
CGA:  13    -0.933734090249E+02   -0.27830E-04   -0.27786E-04  8064   0.196E-03 0.604E-06
CGA:  14    -0.933734171095E+02   -0.80847E-05   -0.80986E-05  8064   0.881E-04 0.449E-06
CGA:  15    -0.933734221864E+02   -0.50768E-05   -0.50771E-05  8064   0.465E-04 0.284E-07
CGA:  16    -0.933734261904E+02   -0.40040E-05   -0.40089E-05  8064   0.593E-04-0.301E-06
CGA:  17    -0.933734281028E+02   -0.19124E-05   -0.19065E-05  8064   0.106E-04-0.151E-06
CGA:  18    -0.933734295036E+02   -0.14008E-05   -0.13981E-05  8064   0.123E-04 0.340E-07
CGA:  19    -0.933734299643E+02   -0.46066E-06   -0.46084E-06  8064   0.480E-05-0.206E-08
   5 F= -.93373430E+02 E0= -.93376277E+02  d E =-.709311E-04  mag=     2.6526
       N       E                     dE             d eps       ncg     rms          ort
SDA:   1    -0.933724524123E+02    0.97709E-03    0.00000E+00  8064   0.126E-01 0.000E+00
CGA:   2    -0.933727345184E+02   -0.28211E-03   -0.28218E-03  8064   0.280E-02-0.434E-05
CGA:   3    -0.933730268182E+02   -0.29230E-03   -0.29232E-03  8064   0.182E-02-0.614E-06
CGA:   4    -0.933731696837E+02   -0.14287E-03   -0.14285E-03  8064   0.171E-02 0.156E-05
CGA:   5    -0.933732612491E+02   -0.91565E-04   -0.91571E-04  8064   0.143E-02 0.199E-06
CGA:   6    -0.933733679484E+02   -0.10670E-03   -0.10670E-03  8064   0.440E-03 0.378E-06
CGA:   7    -0.933733815807E+02   -0.13632E-04   -0.13635E-04  8064   0.217E-03 0.275E-07
CGA:   8    -0.933734050262E+02   -0.23446E-04   -0.23454E-04  8064   0.125E-03-0.217E-06
CGA:   9    -0.933734146740E+02   -0.96478E-05   -0.96492E-05  8064   0.687E-04-0.343E-06
CGA:  10    -0.933734173641E+02   -0.26902E-05   -0.26839E-05  8064   0.484E-04-0.193E-06
CGA:  11    -0.933734225414E+02   -0.51772E-05   -0.51873E-05  8064   0.405E-04-0.244E-06
CGA:  12    -0.933734238540E+02   -0.13126E-05   -0.13140E-05  8064   0.150E-04 0.289E-07
CGA:  13    -0.933734256153E+02   -0.17612E-05   -0.17580E-05  8064   0.135E-04 0.654E-07
CGA:  14    -0.933734265728E+02   -0.95759E-06   -0.95710E-06  8064   0.809E-05 0.171E-06
   6 F= -.93373427E+02 E0= -.93376257E+02  d E =-.675396E-04  mag=     2.6513
       N       E                     dE             d eps       ncg     rms          ort
SDA:   1    -0.933636685956E+02    0.97570E-02    0.00000E+00  8064   0.465E-01 0.000E+00
CGA:   2    -0.933675040465E+02   -0.38355E-02   -0.38355E-02  8064   0.624E-01-0.645E-05
CGA:   3    -0.933694880416E+02   -0.19840E-02   -0.19838E-02  8064   0.133E-01 0.209E-05
CGA:   4    -0.933717822112E+02   -0.22942E-02   -0.22938E-02  8064   0.265E-01 0.234E-05
CGA:   5    -0.933726718498E+02   -0.88964E-03   -0.88979E-03  8064   0.506E-02-0.220E-05
CGA:   6    -0.933730501453E+02   -0.37830E-03   -0.37829E-03  8064   0.231E-02 0.498E-06
CGA:   7    -0.933732426118E+02   -0.19247E-03   -0.19247E-03  8064   0.325E-02-0.535E-06
CGA:   8    -0.933733462229E+02   -0.10361E-03   -0.10361E-03  8064   0.427E-03-0.483E-06
CGA:   9    -0.933733881825E+02   -0.41960E-04   -0.41968E-04  8064   0.412E-03-0.267E-06
CGA:  10    -0.933734142330E+02   -0.26050E-04   -0.26045E-04  8064   0.324E-03-0.750E-06
CGA:  11    -0.933734272487E+02   -0.13016E-04   -0.13010E-04  8064   0.551E-04-0.169E-06
CGA:  12    -0.933734328227E+02   -0.55740E-05   -0.55716E-05  8064   0.136E-03 0.920E-07
CGA:  13    -0.933734385853E+02   -0.57626E-05   -0.57646E-05  8064   0.184E-04 0.593E-07
CGA:  14    -0.933734407000E+02   -0.21147E-05   -0.21174E-05  8064   0.189E-04-0.493E-07
CGA:  15    -0.933734416748E+02   -0.97479E-06   -0.97467E-06  8064   0.158E-04-0.397E-07
   7 F= -.93373442E+02 E0= -.93376248E+02  d E =-.151020E-04  mag=     2.6432
       N       E                     dE             d eps       ncg     rms          ort
SDA:   1    -0.933719043927E+02    0.15363E-02    0.00000E+00  8064   0.149E-01 0.000E+00
CGA:   2    -0.933723114248E+02   -0.40703E-03   -0.40704E-03  8064   0.621E-02-0.323E-05
CGA:   3    -0.933728561655E+02   -0.54474E-03   -0.54475E-03  8064   0.269E-02-0.791E-06
CGA:   4    -0.933729971640E+02   -0.14100E-03   -0.14101E-03  8064   0.289E-02 0.477E-06
CGA:   5    -0.933732710369E+02   -0.27387E-03   -0.27387E-03  8064   0.173E-02-0.512E-07
CGA:   6    -0.933733624554E+02   -0.91418E-04   -0.91434E-04  8064   0.676E-03 0.884E-06
CGA:   7    -0.933733838350E+02   -0.21380E-04   -0.21385E-04  8064   0.281E-03 0.192E-06
CGA:   8    -0.933734203249E+02   -0.36490E-04   -0.36506E-04  8064   0.119E-03-0.297E-06
CGA:   9    -0.933734244020E+02   -0.40771E-05   -0.40781E-05  8064   0.597E-04 0.167E-07
CGA:  10    -0.933734308885E+02   -0.64865E-05   -0.65023E-05  8064   0.517E-04-0.384E-06
CGA:  11    -0.933734326356E+02   -0.17470E-05   -0.17413E-05  8064   0.205E-04-0.167E-06
CGA:  12    -0.933734338622E+02   -0.12267E-05   -0.12253E-05  8064   0.957E-05-0.687E-07
CGA:  13    -0.933734349293E+02   -0.10671E-05   -0.10649E-05  8064   0.111E-04 0.253E-07
CGA:  14    -0.933734352941E+02   -0.36485E-06   -0.36727E-06  8064   0.326E-05 0.490E-07
   8 F= -.93373435E+02 E0= -.93376232E+02  d E =-.872128E-05  mag=     2.6399
       N       E                     dE             d eps       ncg     rms          ort
SDA:   1    -0.933677001354E+02    0.57348E-02    0.00000E+00  8064   0.360E-01 0.000E+00
CGA:   2    -0.933692105907E+02   -0.15105E-02   -0.15104E-02  8064   0.330E-01-0.495E-05
CGA:   3    -0.933711230188E+02   -0.19124E-02   -0.19124E-02  8064   0.810E-02-0.315E-05
CGA:   4    -0.933719329737E+02   -0.80995E-03   -0.80995E-03  8064   0.165E-01-0.655E-06
CGA:   5    -0.933728093834E+02   -0.87641E-03   -0.87645E-03  8064   0.546E-02 0.348E-05
CGA:   6    -0.933731290703E+02   -0.31969E-03   -0.31970E-03  8064   0.186E-02 0.942E-07
CGA:   7    -0.933732036174E+02   -0.74547E-04   -0.74545E-04  8064   0.150E-02-0.355E-06
CGA:   8    -0.933733296966E+02   -0.12608E-03   -0.12607E-03  8064   0.452E-03 0.359E-06
CGA:   9    -0.933733587501E+02   -0.29054E-04   -0.29050E-04  8064   0.267E-03-0.724E-06
CGA:  10    -0.933733700607E+02   -0.11311E-04   -0.11307E-04  8064   0.192E-03-0.209E-06
CGA:  11    -0.933733867258E+02   -0.16665E-04   -0.16671E-04  8064   0.945E-04-0.359E-06
CGA:  12    -0.933733895595E+02   -0.28337E-05   -0.28313E-05  8064   0.312E-04-0.923E-07
CGA:  13    -0.933733945255E+02   -0.49660E-05   -0.49607E-05  8064   0.256E-04 0.874E-07
CGA:  14    -0.933733955709E+02   -0.10455E-05   -0.10461E-05  8064   0.170E-04 0.233E-07
CGA:  15    -0.933733965213E+02   -0.95040E-06   -0.94930E-06  8064   0.837E-05 0.197E-07
   9 F= -.93373397E+02 E0= -.93376174E+02  d E =0.300515E-04  mag=     2.6338
       N       E                     dE             d eps       ncg     rms          ort
SDA:   1    -0.933643719305E+02    0.90236E-02    0.00000E+00  8064   0.541E-01 0.000E+00
CGA:   2    -0.933664138045E+02   -0.20419E-02   -0.20411E-02  8064   0.379E-01 0.437E-05
CGA:   3    -0.933694361240E+02   -0.30223E-02   -0.30224E-02  8064   0.193E-01-0.683E-05
CGA:   4    -0.933702361883E+02   -0.80006E-03   -0.80012E-03  8064   0.172E-01-0.416E-05
CGA:   5    -0.933722712242E+02   -0.20350E-02   -0.20351E-02  8064   0.737E-02-0.121E-05
CGA:   6    -0.933727823991E+02   -0.51117E-03   -0.51118E-03  8064   0.399E-02 0.142E-05
CGA:   7    -0.933729603970E+02   -0.17800E-03   -0.17802E-03  8064   0.312E-02 0.880E-06
CGA:   8    -0.933731922915E+02   -0.23189E-03   -0.23189E-03  8064   0.158E-02 0.560E-06
CGA:   9    -0.933732472086E+02   -0.54917E-04   -0.54907E-04  8064   0.734E-03-0.529E-06
CGA:  10    -0.933733175732E+02   -0.70365E-04   -0.70376E-04  8064   0.594E-03-0.376E-06
CGA:  11    -0.933733700904E+02   -0.52517E-04   -0.52537E-04  8064   0.342E-03-0.984E-06
CGA:  12    -0.933733827263E+02   -0.12636E-04   -0.12638E-04  8064   0.221E-03 0.306E-07
CGA:  13    -0.933734082274E+02   -0.25501E-04   -0.25492E-04  8064   0.218E-03 0.217E-06
CGA:  14    -0.933734146059E+02   -0.63785E-05   -0.63761E-05  8064   0.439E-04-0.565E-07
CGA:  15    -0.933734211862E+02   -0.65803E-05   -0.65627E-05  8064   0.424E-04 0.237E-06
CGA:  16    -0.933734230282E+02   -0.18420E-05   -0.18447E-05  8064   0.280E-04 0.924E-07
CGA:  17    -0.933734245184E+02   -0.14901E-05   -0.14932E-05  8064   0.121E-04 0.191E-06
CGA:  18    -0.933734252574E+02   -0.73900E-06   -0.74123E-06  8064   0.121E-04 0.172E-06
  10 F= -.93373425E+02 E0= -.93376199E+02  d E =-.287360E-04  mag=     2.6270
