       N       E                     dE             d eps       ncg     rms          ort
DAV:   1     0.173886914605E+04    0.17389E+04   -0.93888E+04  8064   0.250E+03
DAV:   2     0.106271047413E+02   -0.17282E+04   -0.16982E+04  8064   0.602E+02
DAV:   3    -0.102647488835E+03   -0.11327E+03   -0.11205E+03  8064   0.159E+02
DAV:   4    -0.105072442413E+03   -0.24250E+01   -0.24234E+01  8064   0.250E+01
DAV:   5    -0.105126039765E+03   -0.53597E-01   -0.53596E-01  8064   0.377E+00
SDA:   6    -0.518463136840E+02    0.53280E+02   -0.53596E-01  8064   0.453E+03 0.000E+00
CGA:   7    -0.790182985374E+02   -0.27172E+02   -0.23916E+02  8064   0.221E+03 0.713E+02
CGA:   8    -0.866219761298E+02   -0.76037E+01   -0.64905E+01  8064   0.372E+02 0.627E+02
CGA:   9    -0.901326374044E+02   -0.35107E+01   -0.35502E+01  8064   0.222E+02-0.116E+00
CGA:  10    -0.908703808928E+02   -0.73774E+00   -0.66509E+00  8064   0.132E+02 0.245E+01
CGA:  11    -0.919165386672E+02   -0.10462E+01   -0.10516E+01  8064   0.795E+01-0.423E-01
CGA:  12    -0.921917167956E+02   -0.27518E+00   -0.30091E+00  8064   0.675E+01-0.559E+00
CGA:  13    -0.924910865477E+02   -0.29937E+00   -0.30486E+00  8064   0.275E+01-0.753E-01
CGA:  14    -0.927048371571E+02   -0.21375E+00   -0.21614E+00  8064   0.729E+01-0.143E-01
CGA:  15    -0.930464416594E+02   -0.34160E+00   -0.28627E+00  8064   0.158E+01 0.146E+01
CGA:  16    -0.931007033272E+02   -0.54262E-01   -0.56701E-01  8064   0.118E+01-0.685E-01
CGA:  17    -0.932088290240E+02   -0.10813E+00   -0.10790E+00  8064   0.980E+00 0.104E-02
CGA:  18    -0.932386451717E+02   -0.29816E-01   -0.30276E-01  8064   0.639E+00-0.141E-01
CGA:  19    -0.932907528992E+02   -0.52108E-01   -0.52115E-01  8064   0.518E+00-0.262E-04
CGA:  20    -0.933079852126E+02   -0.17232E-01   -0.17621E-01  8064   0.311E+00-0.932E-02
CGA:  21    -0.933241212248E+02   -0.16136E-01   -0.16517E-01  8064   0.150E+00-0.377E-02
CGA:  22    -0.933337826383E+02   -0.96614E-02   -0.98464E-02  8064   0.310E+00-0.622E-03
CGA:  23    -0.933549669505E+02   -0.21184E-01   -0.21218E-01  8064   0.608E-01 0.434E-03
CGA:  24    -0.933569637950E+02   -0.19968E-02   -0.20266E-02  8064   0.432E-01-0.458E-03
CGA:  25    -0.933626048897E+02   -0.56411E-02   -0.56329E-02  8064   0.591E-01 0.345E-03
CGA:  26    -0.933657161401E+02   -0.31113E-02   -0.31229E-02  8064   0.520E-01-0.534E-04
CGA:  27    -0.933679157568E+02   -0.21996E-02   -0.22193E-02  8064   0.125E-01-0.309E-03
CGA:  28    -0.933691955811E+02   -0.12798E-02   -0.12798E-02  8064   0.307E-01-0.389E-04
CGA:  29    -0.933706016565E+02   -0.14061E-02   -0.14110E-02  8064   0.875E-02-0.213E-03
CGA:  30    -0.933714827736E+02   -0.88112E-03   -0.88101E-03  8064   0.152E-01-0.466E-04
CGA:  31    -0.933720817011E+02   -0.59893E-03   -0.59925E-03  8064   0.591E-02-0.535E-04
CGA:  32    -0.933725270435E+02   -0.44534E-03   -0.44493E-03  8064   0.348E-02-0.212E-04
CGA:  33    -0.933726822312E+02   -0.15519E-03   -0.15470E-03  8064   0.346E-02-0.180E-04
CGA:  34    -0.933730876663E+02   -0.40544E-03   -0.40717E-03  8064   0.197E-02-0.712E-04
CGA:  35    -0.933731555049E+02   -0.67839E-04   -0.67149E-04  8064   0.112E-02-0.115E-04
CGA:  36    -0.933732383439E+02   -0.82839E-04   -0.82554E-04  8064   0.891E-03-0.134E-04
SDA:  37    -0.933733060129E+02   -0.67669E-04   -0.67501E-04  8064   0.125E-02-0.944E-05
CGA:  38    -0.933733377396E+02   -0.31727E-04   -0.31728E-04  8064   0.220E-03 0.686E-06
CGA:  39    -0.933733661386E+02   -0.28399E-04   -0.28370E-04  8064   0.316E-03 0.190E-05
CGA:  40    -0.933734071452E+02   -0.41007E-04   -0.40901E-04  8064   0.993E-04 0.367E-05
CGA:  41    -0.933734184362E+02   -0.11291E-04   -0.11231E-04  8064   0.513E-04 0.395E-05
CGA:  42    -0.933734204979E+02   -0.20617E-05   -0.21140E-05  8064   0.412E-04 0.178E-05
CGA:  43    -0.933734247219E+02   -0.42240E-05   -0.42050E-05  8064   0.462E-04 0.328E-05
CGA:  44    -0.933734288668E+02   -0.41450E-05   -0.41616E-05  8064   0.675E-04 0.293E-05
CGA:  45    -0.933734319067E+02   -0.30399E-05   -0.31129E-05  8064   0.436E-05 0.233E-05
CGA:  46    -0.933734328657E+02   -0.95899E-06   -0.13025E-05  8064   0.201E-04-0.986E-06
   1 F= -.93373433E+02 E0= -.93376199E+02  d E =-.933734E+02  mag=     2.6259
       N       E                     dE             d eps       ncg     rms          ort
SDA:   1    -0.933689690194E+02    0.44629E-02    0.00000E+00  8064   0.258E-01 0.000E+00
CGA:   2    -0.933704081747E+02   -0.14392E-02   -0.14389E-02  8064   0.292E-01-0.787E-06
CGA:   3    -0.933716056855E+02   -0.11975E-02   -0.11975E-02  8064   0.705E-02 0.404E-06
CGA:   4    -0.933724160057E+02   -0.81032E-03   -0.81025E-03  8064   0.707E-02 0.165E-05
CGA:   5    -0.933730624460E+02   -0.64644E-03   -0.64644E-03  8064   0.616E-02 0.176E-05
CGA:   6    -0.933732452031E+02   -0.18276E-03   -0.18279E-03  8064   0.110E-02-0.142E-05
CGA:   7    -0.933733379365E+02   -0.92733E-04   -0.92727E-04  8064   0.153E-02-0.123E-05
CGA:   8    -0.933733991039E+02   -0.61167E-04   -0.61144E-04  8064   0.493E-03-0.546E-06
CGA:   9    -0.933734321922E+02   -0.33088E-04   -0.33081E-04  8064   0.113E-03-0.285E-06
CGA:  10    -0.933734458614E+02   -0.13669E-04   -0.13664E-04  8064   0.250E-03 0.125E-06
CGA:  11    -0.933734537583E+02   -0.78969E-05   -0.79019E-05  8064   0.308E-04 0.735E-07
CGA:  12    -0.933734567782E+02   -0.30199E-05   -0.30177E-05  8064   0.396E-04 0.120E-06
CGA:  13    -0.933734588443E+02   -0.20661E-05   -0.20694E-05  8064   0.258E-04 0.991E-07
CGA:  14    -0.933734602907E+02   -0.14464E-05   -0.14436E-05  8064   0.734E-05-0.973E-07
CGA:  15    -0.933734607773E+02   -0.48654E-06   -0.48621E-06  8064   0.120E-04-0.276E-07
   2 F= -.93373461E+02 E0= -.93376248E+02  d E =-.279115E-04  mag=     2.6307
       N       E                     dE             d eps       ncg     rms          ort
SDA:   1    -0.933717986535E+02    0.16616E-02    0.00000E+00  8064   0.105E-01 0.000E+00
CGA:   2    -0.933722721351E+02   -0.47348E-03   -0.47341E-03  8064   0.979E-02-0.459E-07
CGA:   3    -0.933727873007E+02   -0.51517E-03   -0.51517E-03  8064   0.279E-02-0.484E-06
CGA:   4    -0.933729853918E+02   -0.19809E-03   -0.19809E-03  8064   0.392E-02-0.130E-05
CGA:   5    -0.933732380505E+02   -0.25266E-03   -0.25266E-03  8064   0.223E-02-0.107E-07
CGA:   6    -0.933733822355E+02   -0.14418E-03   -0.14419E-03  8064   0.432E-03 0.177E-06
CGA:   7    -0.933734052509E+02   -0.23015E-04   -0.23016E-04  8064   0.574E-03-0.525E-07
CGA:   8    -0.933734415571E+02   -0.36306E-04   -0.36306E-04  8064   0.139E-03-0.703E-07
CGA:   9    -0.933734501610E+02   -0.86039E-05   -0.86046E-05  8064   0.894E-04 0.281E-07
CGA:  10    -0.933734541423E+02   -0.39813E-05   -0.39878E-05  8064   0.517E-04 0.213E-06
CGA:  11    -0.933734591400E+02   -0.49976E-05   -0.49984E-05  8064   0.282E-04 0.426E-07
CGA:  12    -0.933734599530E+02   -0.81300E-06   -0.81258E-06  8064   0.107E-04 0.119E-07
CGA:  13    -0.933734613706E+02   -0.14177E-05   -0.14109E-05  8064   0.830E-05 0.113E-06
CGA:  14    -0.933734618531E+02   -0.48248E-06   -0.48261E-06  8064   0.581E-05-0.489E-07
   3 F= -.93373462E+02 E0= -.93376256E+02  d E =-.289874E-04  mag=     2.6332
       N       E                     dE             d eps       ncg     rms          ort
SDA:   1    -0.933670069848E+02    0.64544E-02    0.00000E+00  8064   0.311E-01 0.000E+00
CGA:   2    -0.933696542972E+02   -0.26473E-02   -0.26473E-02  8064   0.369E-01-0.293E-05
CGA:   3    -0.933708304298E+02   -0.11761E-02   -0.11762E-02  8064   0.954E-02-0.655E-05
CGA:   4    -0.933719483310E+02   -0.11179E-02   -0.11180E-02  8064   0.192E-01-0.251E-05
CGA:   5    -0.933727931243E+02   -0.84479E-03   -0.84476E-03  8064   0.592E-02 0.147E-05
CGA:   6    -0.933731168230E+02   -0.32370E-03   -0.32369E-03  8064   0.136E-02-0.138E-05
CGA:   7    -0.933733097045E+02   -0.19288E-03   -0.19284E-03  8064   0.190E-02 0.397E-06
CGA:   8    -0.933733578704E+02   -0.48166E-04   -0.48167E-04  8064   0.284E-03 0.112E-07
CGA:   9    -0.933733882197E+02   -0.30349E-04   -0.30344E-04  8064   0.337E-03 0.695E-07
CGA:  10    -0.933734036440E+02   -0.15424E-04   -0.15438E-04  8064   0.175E-03 0.494E-06
CGA:  11    -0.933734135147E+02   -0.98706E-05   -0.98742E-05  8064   0.409E-04 0.239E-06
CGA:  12    -0.933734179515E+02   -0.44368E-05   -0.44333E-05  8064   0.912E-04 0.755E-07
CGA:  13    -0.933734213036E+02   -0.33521E-05   -0.33537E-05  8064   0.186E-04 0.358E-07
CGA:  14    -0.933734227251E+02   -0.14215E-05   -0.14212E-05  8064   0.121E-04 0.324E-07
CGA:  15    -0.933734235862E+02   -0.86109E-06   -0.86145E-06  8064   0.150E-04 0.983E-08
   4 F= -.93373424E+02 E0= -.93376231E+02  d E =0.927957E-05  mag=     2.6379
       N       E                     dE             d eps       ncg     rms          ort
SDA:   1    -0.933712441785E+02    0.21785E-02    0.00000E+00  8064   0.154E-01 0.000E+00
CGA:   2    -0.933718128033E+02   -0.56862E-03   -0.56869E-03  8064   0.120E-01-0.437E-05
CGA:   3    -0.933725896587E+02   -0.77686E-03   -0.77685E-03  8064   0.295E-02-0.154E-05
CGA:   4    -0.933729133040E+02   -0.32365E-03   -0.32360E-03  8064   0.627E-02 0.814E-06
CGA:   5    -0.933732296898E+02   -0.31639E-03   -0.31637E-03  8064   0.225E-02-0.105E-05
CGA:   6    -0.933733445288E+02   -0.11484E-03   -0.11484E-03  8064   0.739E-03-0.529E-06
CGA:   7    -0.933733751499E+02   -0.30621E-04   -0.30624E-04  8064   0.621E-03 0.352E-07
CGA:   8    -0.933734315800E+02   -0.56430E-04   -0.56426E-04  8064   0.883E-04 0.251E-06
CGA:   9    -0.933734382549E+02   -0.66749E-05   -0.66741E-05  8064   0.156E-03-0.112E-06
CGA:  10    -0.933734460686E+02   -0.78137E-05   -0.78081E-05  8064   0.465E-04-0.278E-06
CGA:  11    -0.933734486532E+02   -0.25846E-05   -0.25838E-05  8064   0.266E-04-0.512E-07
CGA:  12    -0.933734498486E+02   -0.11954E-05   -0.11975E-05  8064   0.164E-04 0.547E-07
CGA:  13    -0.933734516074E+02   -0.17588E-05   -0.17630E-05  8064   0.870E-05-0.995E-07
CGA:  14    -0.933734519273E+02   -0.31988E-06   -0.32145E-06  8064   0.575E-05 0.114E-07
   5 F= -.93373452E+02 E0= -.93376254E+02  d E =-.190616E-04  mag=     2.6353
       N       E                     dE             d eps       ncg     rms          ort
SDA:   1    -0.933728265309E+02    0.62508E-03    0.00000E+00  8064   0.475E-02 0.000E+00
CGA:   2    -0.933730119703E+02   -0.18544E-03   -0.18544E-03  8064   0.342E-02 0.441E-06
CGA:   3    -0.933731925629E+02   -0.18059E-03   -0.18060E-03  8064   0.127E-02 0.328E-06
CGA:   4    -0.933732844449E+02   -0.91882E-04   -0.91885E-04  8064   0.126E-02-0.509E-06
CGA:   5    -0.933733522717E+02   -0.67827E-04   -0.67833E-04  8064   0.914E-03 0.497E-06
CGA:   6    -0.933734292389E+02   -0.76967E-04   -0.76959E-04  8064   0.195E-03 0.386E-06
CGA:   7    -0.933734388051E+02   -0.95662E-05   -0.95639E-05  8064   0.198E-03-0.147E-06
CGA:   8    -0.933734493620E+02   -0.10557E-04   -0.10555E-04  8064   0.829E-04-0.285E-06
CGA:   9    -0.933734561362E+02   -0.67742E-05   -0.67773E-05  8064   0.329E-04-0.160E-06
CGA:  10    -0.933734573492E+02   -0.12130E-05   -0.12151E-05  8064   0.183E-04 0.443E-07
CGA:  11    -0.933734593982E+02   -0.20490E-05   -0.20561E-05  8064   0.125E-04-0.147E-06
CGA:  12    -0.933734597656E+02   -0.36740E-06   -0.36807E-06  8064   0.466E-05-0.953E-08
   6 F= -.93373460E+02 E0= -.93376258E+02  d E =-.268999E-04  mag=     2.6339
       N       E                     dE             d eps       ncg     rms          ort
SDA:   1    -0.933733570216E+02    0.10238E-03    0.00000E+00  8064   0.280E-02 0.000E+00
CGA:   2    -0.933734204558E+02   -0.63434E-04   -0.63441E-04  8064   0.394E-03 0.972E-06
CGA:   3    -0.933734368561E+02   -0.16400E-04   -0.16407E-04  8064   0.107E-03 0.368E-06
CGA:   4    -0.933734442999E+02   -0.74438E-05   -0.74436E-05  8064   0.146E-03 0.232E-07
CGA:   5    -0.933734527396E+02   -0.84397E-05   -0.84406E-05  8064   0.373E-04 0.289E-06
CGA:   6    -0.933734592797E+02   -0.65401E-05   -0.65135E-05  8064   0.215E-04 0.242E-06
CGA:   7    -0.933734602317E+02   -0.95196E-06   -0.95239E-06  8064   0.167E-04 0.168E-07
   7 F= -.93373460E+02 E0= -.93376257E+02  d E =-.273659E-04  mag=     2.6335
       N       E                     dE             d eps       ncg     rms          ort
SDA:   1    -0.933733618879E+02    0.97392E-04    0.00000E+00  8064   0.412E-02 0.000E+00
CGA:   2    -0.933734450956E+02   -0.83208E-04   -0.83210E-04  8064   0.339E-03-0.813E-07
CGA:   3    -0.933734584816E+02   -0.13386E-04   -0.13378E-04  8064   0.290E-04-0.280E-06
CGA:   4    -0.933734594539E+02   -0.97228E-06   -0.96451E-06  8064   0.119E-04-0.284E-06
CGA:   5    -0.933734607372E+02   -0.12834E-05   -0.13140E-05  8064   0.872E-05-0.629E-06
CGA:   6    -0.933734614273E+02   -0.69005E-06   -0.69317E-06  8064   0.443E-05-0.218E-06
   8 F= -.93373461E+02 E0= -.93376257E+02  d E =-.285616E-04  mag=     2.6332
       N       E                     dE             d eps       ncg     rms          ort
SDA:   1    -0.933717937528E+02    0.16670E-02    0.00000E+00  8064   0.221E-01 0.000E+00
CGA:   2    -0.933723486281E+02   -0.55488E-03   -0.55476E-03  8064   0.549E-02 0.493E-05
CGA:   3    -0.933728509841E+02   -0.50236E-03   -0.50236E-03  8064   0.507E-02-0.664E-06
CGA:   4    -0.933730179847E+02   -0.16700E-03   -0.16699E-03  8064   0.192E-02-0.131E-05
CGA:   5    -0.933732991499E+02   -0.28117E-03   -0.28123E-03  8064   0.172E-02-0.899E-06
CGA:   6    -0.933734048110E+02   -0.10566E-03   -0.10565E-03  8064   0.646E-03-0.173E-05
CGA:   7    -0.933734264605E+02   -0.21650E-04   -0.21646E-04  8064   0.299E-03-0.143E-06
CGA:   8    -0.933734564729E+02   -0.30012E-04   -0.30002E-04  8064   0.304E-03 0.285E-06
CGA:   9    -0.933734663729E+02   -0.99000E-05   -0.99007E-05  8064   0.724E-04 0.131E-07
CGA:  10    -0.933734716977E+02   -0.53248E-05   -0.53212E-05  8064   0.345E-04 0.294E-06
CGA:  11    -0.933734752996E+02   -0.36018E-05   -0.35925E-05  8064   0.494E-04 0.237E-06
CGA:  12    -0.933734768238E+02   -0.15242E-05   -0.15289E-05  8064   0.769E-05 0.130E-06
CGA:  13    -0.933734775410E+02   -0.71715E-06   -0.71834E-06  8064   0.164E-04 0.173E-07
   9 F= -.93373478E+02 E0= -.93376292E+02  d E =-.161137E-04  mag=     2.6358
       N       E                     dE             d eps       ncg     rms          ort
SDA:   1    -0.933611411891E+02    0.12336E-01    0.00000E+00  8064   0.545E-01 0.000E+00
CGA:   2    -0.933676500480E+02   -0.65089E-02   -0.65092E-02  8064   0.273E-01-0.501E-05
CGA:   3    -0.933688272794E+02   -0.11772E-02   -0.11773E-02  8064   0.289E-01-0.650E-05
CGA:   4    -0.933716743410E+02   -0.28471E-02   -0.28471E-02  8064   0.185E-01-0.310E-05
CGA:   5    -0.933725667718E+02   -0.89243E-03   -0.89233E-03  8064   0.787E-02-0.183E-05
CGA:   6    -0.933728880977E+02   -0.32133E-03   -0.32131E-03  8064   0.321E-02-0.186E-05
CGA:   7    -0.933732966712E+02   -0.40857E-03   -0.40852E-03  8064   0.169E-02 0.741E-06
CGA:   8    -0.933733432212E+02   -0.46550E-04   -0.46560E-04  8064   0.629E-03 0.114E-06
CGA:   9    -0.933734138610E+02   -0.70640E-04   -0.70601E-04  8064   0.439E-03 0.829E-06
CGA:  10    -0.933734429378E+02   -0.29077E-04   -0.29081E-04  8064   0.273E-03 0.791E-06
CGA:  11    -0.933734525696E+02   -0.96318E-05   -0.96351E-05  8064   0.916E-04 0.103E-06
CGA:  12    -0.933734636380E+02   -0.11068E-04   -0.11064E-04  8064   0.171E-03 0.102E-06
CGA:  13    -0.933734693485E+02   -0.57105E-05   -0.57130E-05  8064   0.333E-04 0.121E-06
CGA:  14    -0.933734722263E+02   -0.28778E-05   -0.28777E-05  8064   0.253E-04-0.176E-07
CGA:  15    -0.933734745999E+02   -0.23736E-05   -0.23740E-05  8064   0.378E-04-0.930E-08
CGA:  16    -0.933734759159E+02   -0.13160E-05   -0.13125E-05  8064   0.661E-05-0.606E-07
CGA:  17    -0.933734764877E+02   -0.57181E-06   -0.57310E-06  8064   0.120E-04-0.661E-07
  10 F= -.93373476E+02 E0= -.93376351E+02  d E =-.150605E-04  mag=     2.6430
       N       E                     dE             d eps       ncg     rms          ort
SDA:   1    -0.933718359761E+02    0.16399E-02    0.00000E+00  8064   0.104E-01 0.000E+00
CGA:   2    -0.933722353123E+02   -0.39934E-03   -0.39933E-03  8064   0.847E-02-0.254E-06
CGA:   3    -0.933727900377E+02   -0.55473E-03   -0.55473E-03  8064   0.266E-02 0.364E-06
CGA:   4    -0.933729914843E+02   -0.20145E-03   -0.20145E-03  8064   0.407E-02-0.100E-05
CGA:   5    -0.933732517714E+02   -0.26029E-03   -0.26028E-03  8064   0.208E-02-0.395E-06
CGA:   6    -0.933733778808E+02   -0.12611E-03   -0.12610E-03  8064   0.539E-03-0.116E-05
CGA:   7    -0.933734005796E+02   -0.22699E-04   -0.22688E-04  8064   0.518E-03-0.500E-06
CGA:   8    -0.933734451896E+02   -0.44610E-04   -0.44632E-04  8064   0.128E-03-0.111E-05
CGA:   9    -0.933734535764E+02   -0.83868E-05   -0.83875E-05  8064   0.119E-03 0.227E-06
CGA:  10    -0.933734593810E+02   -0.58046E-05   -0.58146E-05  8064   0.744E-04 0.474E-06
CGA:  11    -0.933734655007E+02   -0.61197E-05   -0.61125E-05  8064   0.515E-04 0.464E-06
CGA:  12    -0.933734671208E+02   -0.16201E-05   -0.16230E-05  8064   0.181E-04 0.102E-06
CGA:  13    -0.933734700536E+02   -0.29328E-05   -0.28966E-05  8064   0.155E-04 0.391E-06
CGA:  14    -0.933734707789E+02   -0.72535E-06   -0.72423E-06  8064   0.104E-04-0.232E-07
  11 F= -.93373471E+02 E0= -.93376360E+02  d E =0.570880E-05  mag=     2.6464
