       N       E                     dE             d eps       ncg     rms          ort
DAV:   1     0.172947019977E+04    0.17295E+04   -0.94051E+04  8064   0.243E+03
DAV:   2     0.135353856510E+02   -0.17159E+04   -0.16878E+04  8064   0.594E+02
DAV:   3    -0.101425067306E+03   -0.11496E+03   -0.11365E+03  8064   0.157E+02
DAV:   4    -0.104006055624E+03   -0.25810E+01   -0.25767E+01  8064   0.246E+01
DAV:   5    -0.104065551380E+03   -0.59496E-01   -0.59494E-01  8064   0.394E+00
SDA:   6    -0.453742828059E+02    0.58691E+02   -0.59494E-01  8064   0.578E+03 0.000E+00
CGA:   7    -0.713301967495E+02   -0.25956E+02   -0.22959E+02  8064   0.327E+03 0.946E+02
CGA:   8    -0.846237985192E+02   -0.13294E+02   -0.11082E+02  8064   0.446E+02 0.118E+03
CGA:   9    -0.882927924468E+02   -0.36690E+01   -0.38560E+01  8064   0.556E+02-0.186E+01
CGA:  10    -0.892925750527E+02   -0.99978E+00   -0.69075E+00  8064   0.238E+02 0.268E+02
CGA:  11    -0.899018252199E+02   -0.60925E+00   -0.52793E+00  8064   0.964E+01 0.567E+01
CGA:  12    -0.905742123383E+02   -0.67239E+00   -0.66745E+00  8064   0.284E+02 0.957E-01
CGA:  13    -0.910113751694E+02   -0.43716E+00   -0.29611E+00  8064   0.203E+02 0.157E+02
CGA:  14    -0.913919857313E+02   -0.38061E+00   -0.43708E+00  8064   0.274E+01-0.246E+01
CGA:  15    -0.916688340410E+02   -0.27685E+00   -0.27866E+00  8064   0.522E+01 0.191E-01
CGA:  16    -0.919540694359E+02   -0.28524E+00   -0.30189E+00  8064   0.367E+01-0.200E+00
CGA:  17    -0.921631064073E+02   -0.20904E+00   -0.21454E+00  8064   0.198E+01-0.639E-01
CGA:  18    -0.922741266805E+02   -0.11102E+00   -0.11369E+00  8064   0.166E+01-0.249E-01
CGA:  19    -0.923725037460E+02   -0.98377E-01   -0.99386E-01  8064   0.600E+00-0.580E-02
CGA:  20    -0.924010212298E+02   -0.28517E-01   -0.29073E-01  8064   0.439E+00-0.654E-02
CGA:  21    -0.924396722348E+02   -0.38651E-01   -0.38812E-01  8064   0.305E+00 0.130E-02
CGA:  22    -0.924527079260E+02   -0.13036E-01   -0.13262E-01  8064   0.151E+00-0.318E-02
CGA:  23    -0.924673163402E+02   -0.14608E-01   -0.14653E-01  8064   0.189E+00 0.930E-03
CGA:  24    -0.924779512972E+02   -0.10635E-01   -0.10734E-01  8064   0.967E-01-0.811E-03
CGA:  25    -0.924828379055E+02   -0.48866E-02   -0.48870E-02  8064   0.331E-01 0.713E-04
CGA:  26    -0.924849294546E+02   -0.20915E-02   -0.20975E-02  8064   0.370E-01 0.508E-06
CGA:  27    -0.924887033781E+02   -0.37739E-02   -0.37744E-02  8064   0.302E-01-0.727E-05
CGA:  28    -0.924898658412E+02   -0.11625E-02   -0.11661E-02  8064   0.881E-02-0.138E-03
CGA:  29    -0.924905232933E+02   -0.65745E-03   -0.65705E-03  8064   0.109E-01 0.125E-04
CGA:  30    -0.924913624732E+02   -0.83918E-03   -0.83979E-03  8064   0.115E-01 0.275E-04
CGA:  31    -0.924920971905E+02   -0.73472E-03   -0.73713E-03  8064   0.619E-02 0.375E-04
CGA:  32    -0.924923751829E+02   -0.27799E-03   -0.27915E-03  8064   0.258E-02 0.285E-04
CGA:  33    -0.924925984137E+02   -0.22323E-03   -0.22356E-03  8064   0.282E-02 0.326E-04
CGA:  34    -0.924927501426E+02   -0.15173E-03   -0.15217E-03  8064   0.122E-02 0.184E-04
CGA:  35    -0.924928627197E+02   -0.11258E-03   -0.11257E-03  8064   0.195E-02-0.346E-05
CGA:  36    -0.924930026417E+02   -0.13992E-03   -0.13931E-03  8064   0.906E-03-0.212E-04
CGA:  37    -0.924930455208E+02   -0.42879E-04   -0.42303E-04  8064   0.396E-03-0.114E-04
CGA:  38    -0.924930715022E+02   -0.25981E-04   -0.25595E-04  8064   0.385E-03-0.130E-04
CGA:  39    -0.924931053086E+02   -0.33806E-04   -0.33854E-04  8064   0.469E-03-0.254E-04
CGA:  40    -0.924931243234E+02   -0.19015E-04   -0.18264E-04  8064   0.101E-03-0.140E-04
CGA:  41    -0.924931306052E+02   -0.62819E-05   -0.61771E-05  8064   0.127E-03-0.290E-05
CGA:  42    -0.924931420310E+02   -0.11426E-04   -0.11473E-04  8064   0.786E-04-0.507E-05
CGA:  43    -0.924931454103E+02   -0.33793E-05   -0.33437E-05  8064   0.392E-04 0.421E-06
SDA:  44    -0.924931490276E+02   -0.36173E-05   -0.36108E-05  8064   0.365E-04 0.225E-05
CGA:  45    -0.924931499922E+02   -0.96465E-06   -0.98601E-06  8064   0.110E-04 0.168E-05
CGA:  46    -0.924931511116E+02   -0.11194E-05   -0.10975E-05  8064   0.105E-04 0.294E-05
CGA:  47    -0.924931526275E+02   -0.15159E-05   -0.14439E-05  8064   0.908E-05 0.389E-05
CGA:  48    -0.924931530461E+02   -0.41859E-06   -0.46318E-06  8064   0.452E-05 0.204E-05
   1 F= -.92493153E+02 E0= -.92494337E+02  d E =-.924932E+02  mag=     2.9576
