       N       E                     dE             d eps       ncg     rms          ort
DAV:   1     0.175423582550E+04    0.17542E+04   -0.93963E+04  8064   0.243E+03
DAV:   2     0.218130933533E+02   -0.17324E+04   -0.17063E+04  8064   0.600E+02
DAV:   3    -0.964244020158E+02   -0.11824E+03   -0.11723E+03  8064   0.159E+02
DAV:   4    -0.989247238489E+02   -0.25003E+01   -0.24989E+01  8064   0.255E+01
DAV:   5    -0.989822447962E+02   -0.57521E-01   -0.57520E-01  8064   0.389E+00
SDA:   6    -0.475039616680E+02    0.51478E+02   -0.57520E-01  8064   0.394E+03 0.000E+00
CGA:   7    -0.835754924202E+02   -0.36072E+02   -0.34263E+02  8064   0.631E+02 0.182E+02
CGA:   8    -0.862136029780E+02   -0.26381E+01   -0.25519E+01  8064   0.272E+02 0.236E+01
CGA:   9    -0.890808240640E+02   -0.28672E+01   -0.27581E+01  8064   0.110E+02 0.436E+00
CGA:  10    -0.901346437257E+02   -0.10538E+01   -0.10451E+01  8064   0.837E+01 0.593E-01
CGA:  11    -0.905894042673E+02   -0.45476E+00   -0.43908E+00  8064   0.688E+01 0.216E+00
CGA:  12    -0.914088194660E+02   -0.81942E+00   -0.81981E+00  8064   0.361E+01 0.497E-02
CGA:  13    -0.918154890577E+02   -0.40667E+00   -0.41090E+00  8064   0.455E+01-0.210E-02
CGA:  14    -0.919743469777E+02   -0.15886E+00   -0.13889E+00  8064   0.934E+00 0.607E+00
CGA:  15    -0.921213249770E+02   -0.14698E+00   -0.14669E+00  8064   0.225E+01-0.598E-02
CGA:  16    -0.922008266986E+02   -0.79502E-01   -0.83851E-01  8064   0.871E+00-0.109E+00
CGA:  17    -0.922575037926E+02   -0.56677E-01   -0.56156E-01  8064   0.535E+00 0.582E-02
CGA:  18    -0.922807443243E+02   -0.23241E-01   -0.23356E-01  8064   0.530E+00-0.162E-02
CGA:  19    -0.923434672626E+02   -0.62723E-01   -0.62706E-01  8064   0.336E+00-0.825E-03
CGA:  20    -0.923547122328E+02   -0.11245E-01   -0.11376E-01  8064   0.205E+00-0.318E-02
CGA:  21    -0.923779737377E+02   -0.23262E-01   -0.23247E-01  8064   0.140E+00 0.426E-03
CGA:  22    -0.923842708242E+02   -0.62971E-02   -0.62674E-02  8064   0.138E+00 0.102E-02
CGA:  23    -0.923962609887E+02   -0.11990E-01   -0.11992E-01  8064   0.742E-01 0.337E-03
CGA:  24    -0.924007218196E+02   -0.44608E-02   -0.44731E-02  8064   0.836E-01 0.824E-04
CGA:  25    -0.924044867084E+02   -0.37649E-02   -0.37464E-02  8064   0.252E-01 0.463E-03
CGA:  26    -0.924078607719E+02   -0.33741E-02   -0.33771E-02  8064   0.734E-01-0.173E-03
CGA:  27    -0.924105748017E+02   -0.27140E-02   -0.27008E-02  8064   0.108E-01 0.116E-03
CGA:  28    -0.924113188880E+02   -0.74409E-03   -0.74003E-03  8064   0.161E-01-0.848E-05
CGA:  29    -0.924121830480E+02   -0.86416E-03   -0.85511E-03  8064   0.127E-01 0.336E-04
CGA:  30    -0.924132187409E+02   -0.10357E-02   -0.10320E-02  8064   0.865E-02-0.893E-04
CGA:  31    -0.924134508162E+02   -0.23208E-03   -0.22913E-03  8064   0.226E-02-0.127E-05
CGA:  32    -0.924137891652E+02   -0.33835E-03   -0.34164E-03  8064   0.583E-02-0.648E-04
CGA:  33    -0.924139701497E+02   -0.18098E-03   -0.17834E-03  8064   0.170E-02-0.646E-05
CGA:  34    -0.924141231898E+02   -0.15304E-03   -0.15290E-03  8064   0.286E-02-0.567E-06
CGA:  35    -0.924142170320E+02   -0.93842E-04   -0.93868E-04  8064   0.737E-03 0.108E-04
CGA:  36    -0.924142637856E+02   -0.46754E-04   -0.46935E-04  8064   0.769E-03 0.128E-04
SDA:  37    -0.924142927618E+02   -0.28976E-04   -0.29307E-04  8064   0.429E-03 0.128E-04
CGA:  38    -0.924143254069E+02   -0.32645E-04   -0.32599E-04  8064   0.337E-03 0.460E-05
CGA:  39    -0.924143475455E+02   -0.22139E-04   -0.22194E-04  8064   0.408E-03 0.877E-05
CGA:  40    -0.924143792111E+02   -0.31666E-04   -0.31674E-04  8064   0.110E-03 0.135E-04
CGA:  41    -0.924143894260E+02   -0.10215E-04   -0.10229E-04  8064   0.177E-04 0.157E-04
CGA:  42    -0.924143900044E+02   -0.57847E-06   -0.64806E-06  8064  -0.177E-05 0.909E-05
   1 F= -.92414390E+02 E0= -.92413427E+02  d E =-.924144E+02  mag=     2.6754
       N       E                     dE             d eps       ncg     rms          ort
SDA:   1    -0.915955797120E+02    0.81881E+00    0.00000E+00  8064   0.341E+01 0.000E+00
CGA:   2    -0.919397025195E+02   -0.34412E+00   -0.34388E+00  8064   0.348E+01 0.131E-01
CGA:   3    -0.920762170540E+02   -0.13651E+00   -0.13621E+00  8064   0.175E+01 0.571E-02
CGA:   4    -0.922359640559E+02   -0.15975E+00   -0.15974E+00  8064   0.188E+01-0.328E-03
CGA:   5    -0.923352061407E+02   -0.99242E-01   -0.99194E-01  8064   0.148E+01-0.406E-03
CGA:   6    -0.923865102514E+02   -0.51304E-01   -0.51094E-01  8064   0.174E+00 0.410E-02
CGA:   7    -0.924189767899E+02   -0.32467E-01   -0.32483E-01  8064   0.183E+00-0.166E-03
CGA:   8    -0.924245036387E+02   -0.55268E-02   -0.55195E-02  8064   0.515E-01 0.201E-03
CGA:   9    -0.924305766021E+02   -0.60730E-02   -0.60738E-02  8064   0.534E-01-0.103E-04
CGA:  10    -0.924341733462E+02   -0.35967E-02   -0.35967E-02  8064   0.334E-01-0.410E-05
CGA:  11    -0.924351639015E+02   -0.99056E-03   -0.99046E-03  8064   0.125E-01 0.488E-07
CGA:  12    -0.924372152081E+02   -0.20513E-02   -0.20510E-02  8064   0.175E-01 0.500E-05
CGA:  13    -0.924377591609E+02   -0.54395E-03   -0.54360E-03  8064   0.434E-02 0.144E-04
CGA:  14    -0.924381721011E+02   -0.41294E-03   -0.41302E-03  8064   0.375E-02-0.640E-05
CGA:  15    -0.924385224468E+02   -0.35035E-03   -0.35036E-03  8064   0.385E-02-0.146E-05
CGA:  16    -0.924386312855E+02   -0.10884E-03   -0.10889E-03  8064   0.842E-03 0.261E-05
CGA:  17    -0.924387127486E+02   -0.81463E-04   -0.81381E-04  8064   0.124E-02 0.611E-05
CGA:  18    -0.924387693670E+02   -0.56618E-04   -0.56779E-04  8064   0.615E-03 0.468E-05
CGA:  19    -0.924388099708E+02   -0.40604E-04   -0.40612E-04  8064   0.200E-03 0.649E-06
CGA:  20    -0.924388305795E+02   -0.20609E-04   -0.20724E-04  8064   0.311E-03-0.481E-05
CGA:  21    -0.924388407755E+02   -0.10196E-04   -0.10107E-04  8064   0.927E-04-0.168E-05
CGA:  22    -0.924388492809E+02   -0.85054E-05   -0.84683E-05  8064   0.137E-03 0.315E-05
CGA:  23    -0.924388550745E+02   -0.57936E-05   -0.58989E-05  8064   0.493E-04 0.292E-05
CGA:  24    -0.924388585941E+02   -0.35196E-05   -0.35276E-05  8064   0.250E-04 0.119E-05
CGA:  25    -0.924388624619E+02   -0.38677E-05   -0.39294E-05  8064   0.591E-04-0.716E-06
CGA:  26    -0.924388644828E+02   -0.20209E-05   -0.19979E-05  8064   0.102E-04-0.421E-06
CGA:  27    -0.924388654345E+02   -0.95174E-06   -0.94462E-06  8064   0.190E-04 0.518E-06
   2 F= -.92438865E+02 E0= -.92438577E+02  d E =-.244754E-01  mag=     2.6989
       N       E                     dE             d eps       ncg     rms          ort
SDA:   1    -0.841205791456E+02    0.83183E+01    0.00000E+00  8064   0.518E+02 0.000E+00
CGA:   2    -0.868140489531E+02   -0.26935E+01   -0.26940E+01  8064   0.360E+02 0.107E+00
CGA:   3    -0.884969130415E+02   -0.16829E+01   -0.16975E+01  8064   0.211E+02-0.358E-01
CGA:   4    -0.903228914654E+02   -0.18260E+01   -0.18293E+01  8064   0.103E+02-0.192E+00
CGA:   5    -0.917741035157E+02   -0.14512E+01   -0.14524E+01  8064   0.773E+01-0.251E-01
CGA:   6    -0.919993119687E+02   -0.22521E+00   -0.22503E+00  8064   0.226E+01 0.284E-02
CGA:   7    -0.921998347294E+02   -0.20052E+00   -0.20072E+00  8064   0.186E+01-0.107E-01
CGA:   8    -0.923003400611E+02   -0.10051E+00   -0.10035E+00  8064   0.180E+01-0.467E-03
CGA:   9    -0.923752387165E+02   -0.74899E-01   -0.75105E-01  8064   0.311E+00-0.147E-02
CGA:  10    -0.924174871874E+02   -0.42248E-01   -0.42238E-01  8064   0.537E+00-0.105E-04
CGA:  11    -0.924388060649E+02   -0.21319E-01   -0.21316E-01  8064   0.215E+00-0.141E-03
CGA:  12    -0.924520419453E+02   -0.13236E-01   -0.13220E-01  8064   0.964E-01-0.222E-03
CGA:  13    -0.924632591696E+02   -0.11217E-01   -0.11212E-01  8064   0.204E+00 0.111E-03
CGA:  14    -0.924698018003E+02   -0.65426E-02   -0.65419E-02  8064   0.295E-01 0.110E-03
CGA:  15    -0.924728701175E+02   -0.30683E-02   -0.30705E-02  8064   0.470E-01-0.586E-04
CGA:  16    -0.924748508299E+02   -0.19807E-02   -0.19809E-02  8064   0.205E-01-0.147E-04
CGA:  17    -0.924763029305E+02   -0.14521E-02   -0.14521E-02  8064   0.804E-02 0.512E-05
CGA:  18    -0.924769623954E+02   -0.65946E-03   -0.65932E-03  8064   0.121E-01 0.241E-04
CGA:  19    -0.924774235331E+02   -0.46114E-03   -0.46141E-03  8064   0.353E-02 0.249E-04
CGA:  20    -0.924777309231E+02   -0.30739E-03   -0.30747E-03  8064   0.380E-02-0.287E-05
CGA:  21    -0.924778944657E+02   -0.16354E-03   -0.16337E-03  8064   0.221E-02-0.456E-05
CGA:  22    -0.924780476625E+02   -0.15320E-03   -0.15318E-03  8064   0.703E-03-0.369E-05
CGA:  23    -0.924781263123E+02   -0.78650E-04   -0.78295E-04  8064   0.172E-02 0.108E-04
CGA:  24    -0.924781987282E+02   -0.72416E-04   -0.72727E-04  8064   0.437E-03 0.120E-04
CGA:  25    -0.924782274431E+02   -0.28715E-04   -0.28733E-04  8064   0.403E-03 0.416E-05
CGA:  26    -0.924782498816E+02   -0.22438E-04   -0.22438E-04  8064   0.401E-03 0.108E-05
CGA:  27    -0.924782881543E+02   -0.38273E-04   -0.38336E-04  8064   0.138E-03-0.149E-05
CGA:  28    -0.924782951266E+02   -0.69723E-05   -0.70017E-05  8064   0.160E-03 0.236E-05
CGA:  29    -0.924783078866E+02   -0.12760E-04   -0.12726E-04  8064   0.105E-03 0.552E-05
CGA:  30    -0.924783141861E+02   -0.62995E-05   -0.63183E-05  8064   0.898E-04 0.220E-05
CGA:  31    -0.924783180694E+02   -0.38833E-05   -0.38805E-05  8064   0.292E-04 0.574E-06
SDA:  32    -0.924783216090E+02   -0.35395E-05   -0.36611E-05  8064   0.397E-04-0.159E-05
CGA:  33    -0.924783225067E+02   -0.89777E-06   -0.90305E-06  8064   0.919E-05 0.647E-06
   3 F= -.92478323E+02 E0= -.92478673E+02  d E =-.639325E-01  mag=     2.7913
       N       E                     dE             d eps       ncg     rms          ort
SDA:   1    -0.917259942442E+02    0.75233E+00    0.00000E+00  8064   0.294E+01 0.000E+00
CGA:   2    -0.920773724650E+02   -0.35138E+00   -0.35080E+00  8064   0.180E+01 0.110E-01
CGA:   3    -0.921884130461E+02   -0.11104E+00   -0.11110E+00  8064   0.221E+01 0.157E-02
CGA:   4    -0.923151100455E+02   -0.12670E+00   -0.12680E+00  8064   0.153E+01 0.853E-03
CGA:   5    -0.924173160444E+02   -0.10221E+00   -0.10218E+00  8064   0.595E+00-0.238E-02
CGA:   6    -0.924339452906E+02   -0.16629E-01   -0.16629E-01  8064   0.193E+00 0.234E-06
CGA:   7    -0.924649676054E+02   -0.31022E-01   -0.31026E-01  8064   0.693E-01-0.888E-04
CGA:   8    -0.924691274853E+02   -0.41599E-02   -0.41590E-02  8064   0.732E-01-0.915E-05
CGA:   9    -0.924730878199E+02   -0.39603E-02   -0.39589E-02  8064   0.529E-01 0.616E-05
CGA:  10    -0.924767708724E+02   -0.36831E-02   -0.36831E-02  8064   0.220E-01 0.435E-05
CGA:  11    -0.924775153321E+02   -0.74446E-03   -0.74463E-03  8064   0.136E-01-0.682E-06
CGA:  12    -0.924795716796E+02   -0.20563E-02   -0.20564E-02  8064   0.697E-02-0.123E-05
CGA:  13    -0.924799510754E+02   -0.37940E-03   -0.37936E-03  8064   0.560E-02-0.261E-05
CGA:  14    -0.924802337721E+02   -0.28270E-03   -0.28260E-03  8064   0.404E-02-0.383E-05
CGA:  15    -0.924805926863E+02   -0.35891E-03   -0.35898E-03  8064   0.249E-02-0.318E-05
CGA:  16    -0.924806648749E+02   -0.72189E-04   -0.72272E-04  8064   0.886E-03 0.229E-05
CGA:  17    -0.924807731379E+02   -0.10826E-03   -0.10765E-03  8064   0.649E-03 0.123E-04
CGA:  18    -0.924808133537E+02   -0.40216E-04   -0.40241E-04  8064   0.572E-03 0.221E-05
CGA:  19    -0.924808387817E+02   -0.25428E-04   -0.25390E-04  8064   0.262E-03-0.109E-05
CGA:  20    -0.924808613115E+02   -0.22530E-04   -0.22607E-04  8064   0.204E-03-0.503E-05
CGA:  21    -0.924808678222E+02   -0.65108E-05   -0.64894E-05  8064   0.965E-04-0.388E-06
CGA:  22    -0.924808794491E+02   -0.11627E-04   -0.11427E-04  8064   0.661E-04 0.427E-05
CGA:  23    -0.924808837862E+02   -0.43372E-05   -0.43527E-05  8064   0.500E-04 0.177E-05
CGA:  24    -0.924808860191E+02   -0.22328E-05   -0.22500E-05  8064   0.294E-04 0.677E-06
CGA:  25    -0.924808902840E+02   -0.42649E-05   -0.42907E-05  8064   0.309E-04-0.264E-06
CGA:  26    -0.924808912768E+02   -0.99280E-06   -0.99128E-06  8064   0.147E-04 0.306E-07
CGA:  27    -0.924808924427E+02   -0.11659E-05   -0.11645E-05  8064   0.117E-04 0.344E-06
CGA:  28    -0.924808935623E+02   -0.11196E-05   -0.11039E-05  8064   0.161E-04 0.874E-06
CGA:  29    -0.924808942156E+02   -0.65328E-06   -0.67173E-06  8064   0.284E-05 0.611E-06
   4 F= -.92480894E+02 E0= -.92482015E+02  d E =-.665042E-01  mag=     2.8269
       N       E                     dE             d eps       ncg     rms          ort
SDA:   1    -0.920777245259E+02    0.40317E+00    0.00000E+00  8064   0.187E+01 0.000E+00
CGA:   2    -0.922560184402E+02   -0.17829E+00   -0.17823E+00  8064   0.107E+01 0.225E-02
CGA:   3    -0.923387326117E+02   -0.82714E-01   -0.82705E-01  8064   0.106E+01 0.239E-02
CGA:   4    -0.923825022006E+02   -0.43770E-01   -0.43873E-01  8064   0.819E+00-0.134E-02
CGA:   5    -0.924583088608E+02   -0.75807E-01   -0.75813E-01  8064   0.131E+00-0.189E-03
CGA:   6    -0.924689775917E+02   -0.10669E-01   -0.10668E-01  8064   0.165E+00 0.777E-04
CGA:   7    -0.924756260224E+02   -0.66484E-02   -0.66461E-02  8064   0.804E-01 0.161E-04
CGA:   8    -0.924812492663E+02   -0.56232E-02   -0.56234E-02  8064   0.233E-01 0.317E-04
CGA:   9    -0.924823344272E+02   -0.10852E-02   -0.10856E-02  8064   0.244E-01 0.193E-05
CGA:  10    -0.924844151599E+02   -0.20807E-02   -0.20806E-02  8064   0.946E-02 0.617E-05
CGA:  11    -0.924850115126E+02   -0.59635E-03   -0.59636E-03  8064   0.588E-02 0.365E-05
CGA:  12    -0.924852838200E+02   -0.27231E-03   -0.27234E-03  8064   0.596E-02 0.140E-05
CGA:  13    -0.924858382190E+02   -0.55440E-03   -0.55434E-03  8064   0.149E-02 0.189E-05
CGA:  14    -0.924859428862E+02   -0.10467E-03   -0.10467E-03  8064   0.229E-02-0.703E-06
CGA:  15    -0.924860658258E+02   -0.12294E-03   -0.12291E-03  8064   0.100E-02-0.133E-05
CGA:  16    -0.924861409875E+02   -0.75162E-04   -0.75164E-04  8064   0.635E-03-0.746E-06
CGA:  17    -0.924861639786E+02   -0.22991E-04   -0.22997E-04  8064   0.359E-03 0.251E-06
CGA:  18    -0.924861994963E+02   -0.35518E-04   -0.35473E-04  8064   0.186E-03 0.175E-05
CGA:  19    -0.924862125333E+02   -0.13037E-04   -0.13036E-04  8064   0.181E-03-0.311E-06
CGA:  20    -0.924862198945E+02   -0.73613E-05   -0.73422E-05  8064   0.965E-04-0.473E-06
CGA:  21    -0.924862280405E+02   -0.81459E-05   -0.81574E-05  8064   0.398E-04-0.672E-06
CGA:  22    -0.924862297122E+02   -0.16717E-05   -0.16720E-05  8064   0.351E-04 0.916E-07
CGA:  23    -0.924862333240E+02   -0.36118E-05   -0.35962E-05  8064   0.176E-04 0.515E-06
CGA:  24    -0.924862343542E+02   -0.10303E-05   -0.10330E-05  8064   0.135E-04 0.240E-06
CGA:  25    -0.924862349201E+02   -0.56587E-06   -0.56553E-06  8064   0.816E-05 0.640E-07
CGA:  26    -0.924862360524E+02   -0.11323E-05   -0.11578E-05  8064   0.797E-05-0.294E-06
CGA:  27    -0.924862363541E+02   -0.30173E-06   -0.30106E-06  8064   0.443E-05-0.263E-08
   5 F= -.92486236E+02 E0= -.92487626E+02  d E =-.534214E-02  mag=     2.8601
       N       E                     dE             d eps       ncg     rms          ort
SDA:   1    -0.906795824029E+02    0.18067E+01    0.00000E+00  8064   0.976E+01 0.000E+00
CGA:   2    -0.914176520489E+02   -0.73807E+00   -0.73855E+00  8064   0.488E+01-0.456E-01
CGA:   3    -0.918372609620E+02   -0.41961E+00   -0.41960E+00  8064   0.462E+01 0.157E-03
CGA:   4    -0.920343448338E+02   -0.19708E+00   -0.19816E+00  8064   0.296E+01-0.677E-02
CGA:   5    -0.923675208855E+02   -0.33318E+00   -0.33330E+00  8064   0.750E+00-0.215E-02
CGA:   6    -0.924064028033E+02   -0.38882E-01   -0.38922E-01  8064   0.703E+00 0.212E-03
CGA:   7    -0.924398625652E+02   -0.33460E-01   -0.33459E-01  8064   0.330E+00-0.415E-04
CGA:   8    -0.924683618327E+02   -0.28499E-01   -0.28501E-01  8064   0.170E+00-0.594E-04
CGA:   9    -0.924738683743E+02   -0.55065E-02   -0.55164E-02  8064   0.690E-01-0.143E-03
CGA:  10    -0.924825254761E+02   -0.86571E-02   -0.86559E-02  8064   0.496E-01 0.765E-05
CGA:  11    -0.924856139576E+02   -0.30885E-02   -0.30881E-02  8064   0.271E-01-0.189E-06
CGA:  12    -0.924867498687E+02   -0.11359E-02   -0.11359E-02  8064   0.194E-01 0.146E-04
CGA:  13    -0.924889819691E+02   -0.22321E-02   -0.22307E-02  8064   0.137E-01 0.283E-04
CGA:  14    -0.924894233096E+02   -0.44134E-03   -0.44150E-03  8064   0.601E-02-0.294E-05
CGA:  15    -0.924900339875E+02   -0.61068E-03   -0.61097E-03  8064   0.431E-02-0.746E-05
CGA:  16    -0.924903637480E+02   -0.32976E-03   -0.32977E-03  8064   0.376E-02-0.259E-05
CGA:  17    -0.924905058084E+02   -0.14206E-03   -0.14207E-03  8064   0.130E-02 0.598E-06
CGA:  18    -0.924906470154E+02   -0.14121E-03   -0.14100E-03  8064   0.121E-02 0.594E-05
CGA:  19    -0.924906951412E+02   -0.48126E-04   -0.48152E-04  8064   0.733E-03 0.114E-05
CGA:  20    -0.924907418584E+02   -0.46717E-04   -0.46703E-04  8064   0.373E-03-0.171E-05
CGA:  21    -0.924907735025E+02   -0.31644E-04   -0.31694E-04  8064   0.372E-03-0.296E-05
CGA:  22    -0.924907863118E+02   -0.12809E-04   -0.12778E-04  8064   0.934E-04-0.580E-06
CGA:  23    -0.924908004536E+02   -0.14142E-04   -0.13946E-04  8064   0.106E-03 0.266E-05
CGA:  24    -0.924908049627E+02   -0.45091E-05   -0.45313E-05  8064   0.631E-04 0.870E-06
CGA:  25    -0.924908084581E+02   -0.34954E-05   -0.34965E-05  8064   0.299E-04 0.201E-06
CGA:  26    -0.924908114234E+02   -0.29653E-05   -0.29976E-05  8064   0.607E-04-0.936E-06
CGA:  27    -0.924908141331E+02   -0.27096E-05   -0.26842E-05  8064   0.163E-04-0.814E-06
CGA:  28    -0.924908155465E+02   -0.14134E-05   -0.14089E-05  8064   0.101E-04 0.400E-06
CGA:  29    -0.924908164874E+02   -0.94094E-06   -0.93026E-06  8064   0.182E-04 0.616E-06
   6 F= -.92490816E+02 E0= -.92492426E+02  d E =-.992227E-02  mag=     2.9206
       N       E                     dE             d eps       ncg     rms          ort
SDA:   1    -0.922279403489E+02    0.26288E+00    0.00000E+00  8064   0.107E+01 0.000E+00
CGA:   2    -0.923232364852E+02   -0.95296E-01   -0.95256E-01  8064   0.138E+01 0.164E-02
CGA:   3    -0.923742957453E+02   -0.51059E-01   -0.50907E-01  8064   0.399E+00 0.203E-02
CGA:   4    -0.924353043471E+02   -0.61009E-01   -0.60980E-01  8064   0.546E+00 0.263E-03
CGA:   5    -0.924590266085E+02   -0.23722E-01   -0.23694E-01  8064   0.326E+00 0.283E-04
CGA:   6    -0.924724335781E+02   -0.13407E-01   -0.13374E-01  8064   0.844E-01 0.285E-03
CGA:   7    -0.924835566960E+02   -0.11123E-01   -0.11122E-01  8064   0.591E-01 0.239E-04
CGA:   8    -0.924859882217E+02   -0.24315E-02   -0.24294E-02  8064   0.340E-01 0.231E-04
CGA:   9    -0.924880399154E+02   -0.20517E-02   -0.20523E-02  8064   0.174E-01 0.162E-04
CGA:  10    -0.924904609805E+02   -0.24211E-02   -0.24212E-02  8064   0.108E-01-0.231E-05
CGA:  11    -0.924908425765E+02   -0.38160E-03   -0.38166E-03  8064   0.756E-02-0.855E-06
CGA:  12    -0.924918090456E+02   -0.96647E-03   -0.96638E-03  8064   0.435E-02 0.135E-05
CGA:  13    -0.924919803400E+02   -0.17129E-03   -0.17130E-03  8064   0.242E-02 0.108E-07
CGA:  14    -0.924921338793E+02   -0.15354E-03   -0.15354E-03  8064   0.165E-02-0.643E-06
CGA:  15    -0.924923081807E+02   -0.17430E-03   -0.17434E-03  8064   0.666E-03-0.114E-05
CGA:  16    -0.924923347522E+02   -0.26571E-04   -0.26556E-04  8064   0.478E-03-0.476E-06
CGA:  17    -0.924923714933E+02   -0.36741E-04   -0.36745E-04  8064   0.248E-03-0.767E-06
CGA:  18    -0.924923866797E+02   -0.15186E-04   -0.15180E-04  8064   0.231E-03-0.481E-06
CGA:  19    -0.924923964327E+02   -0.97530E-05   -0.97361E-05  8064   0.785E-04-0.475E-06
CGA:  20    -0.924924068130E+02   -0.10380E-04   -0.10434E-04  8064   0.518E-04-0.856E-06
CGA:  21    -0.924924086859E+02   -0.18729E-05   -0.18756E-05  8064   0.284E-04 0.695E-07
CGA:  22    -0.924924112156E+02   -0.25297E-05   -0.25225E-05  8064   0.239E-04 0.562E-06
CGA:  23    -0.924924128971E+02   -0.16814E-05   -0.16838E-05  8064   0.200E-04 0.436E-06
CGA:  24    -0.924924136413E+02   -0.74419E-06   -0.74800E-06  8064   0.822E-05 0.139E-06
CGA:  25    -0.924924148630E+02   -0.12217E-05   -0.12316E-05  8064   0.658E-05-0.125E-06
CGA:  26    -0.924924151373E+02   -0.27423E-06   -0.27076E-06  8064   0.469E-05-0.960E-07
   7 F= -.92492415E+02 E0= -.92493793E+02  d E =-.159865E-02  mag=     2.9416
       N       E                     dE             d eps       ncg     rms          ort
SDA:   1    -0.923890693888E+02    0.10335E+00    0.00000E+00  8064   0.404E+00 0.000E+00
CGA:   2    -0.924307743344E+02   -0.41705E-01   -0.41691E-01  8064   0.469E+00 0.390E-03
CGA:   3    -0.924464846735E+02   -0.15710E-01   -0.15678E-01  8064   0.161E+00 0.587E-03
CGA:   4    -0.924726310094E+02   -0.26146E-01   -0.26142E-01  8064   0.200E+00 0.192E-04
CGA:   5    -0.924798522529E+02   -0.72212E-02   -0.72158E-02  8064   0.995E-01 0.330E-04
CGA:   6    -0.924852955055E+02   -0.54433E-02   -0.54408E-02  8064   0.323E-01-0.124E-04
CGA:   7    -0.924893589850E+02   -0.40635E-02   -0.40634E-02  8064   0.198E-01-0.219E-06
CGA:   8    -0.924901455599E+02   -0.78657E-03   -0.78614E-03  8064   0.113E-01 0.777E-05
CGA:   9    -0.924909061189E+02   -0.76056E-03   -0.76058E-03  8064   0.805E-02 0.271E-05
CGA:  10    -0.924917282197E+02   -0.82210E-03   -0.82196E-03  8064   0.526E-02 0.493E-05
CGA:  11    -0.924918952852E+02   -0.16707E-03   -0.16713E-03  8064   0.262E-02 0.900E-08
CGA:  12    -0.924923042077E+02   -0.40892E-03   -0.40879E-03  8064   0.123E-02 0.152E-05
CGA:  13    -0.924923576681E+02   -0.53460E-04   -0.53455E-04  8064   0.980E-03 0.107E-07
CGA:  14    -0.924924334563E+02   -0.75788E-04   -0.75790E-04  8064   0.589E-03-0.988E-06
CGA:  15    -0.924924824065E+02   -0.48950E-04   -0.48958E-04  8064   0.358E-03-0.121E-05
CGA:  16    -0.924924941296E+02   -0.11723E-04   -0.11706E-04  8064   0.152E-03-0.415E-06
CGA:  17    -0.924925089313E+02   -0.14802E-04   -0.14815E-04  8064   0.103E-03-0.605E-06
CGA:  18    -0.924925145656E+02   -0.56343E-05   -0.56286E-05  8064   0.763E-04-0.246E-06
CGA:  19    -0.924925181251E+02   -0.35594E-05   -0.35511E-05  8064   0.338E-04-0.268E-06
CGA:  20    -0.924925223023E+02   -0.41772E-05   -0.42044E-05  8064   0.201E-04-0.458E-06
CGA:  21    -0.924925229548E+02   -0.65249E-06   -0.65271E-06  8064   0.105E-04 0.611E-07
CGA:  22    -0.924925241958E+02   -0.12411E-05   -0.12218E-05  8064   0.794E-05 0.476E-06
CGA:  23    -0.924925246167E+02   -0.42089E-06   -0.42392E-06  8064   0.687E-05 0.138E-06
   8 F= -.92492525E+02 E0= -.92493750E+02  d E =-.170813E-02  mag=     2.9542
       N       E                     dE             d eps       ncg     rms          ort
SDA:   1    -0.924870137485E+02    0.55104E-02    0.00000E+00  8064   0.220E-01 0.000E+00
CGA:   2    -0.924891116427E+02   -0.20979E-02   -0.20979E-02  8064   0.287E-01-0.447E-05
CGA:   3    -0.924900441421E+02   -0.93250E-03   -0.93242E-03  8064   0.906E-02-0.227E-05
CGA:   4    -0.924912710339E+02   -0.12269E-02   -0.12269E-02  8064   0.105E-01 0.128E-06
CGA:   5    -0.924918891986E+02   -0.61816E-03   -0.61827E-03  8064   0.698E-02 0.242E-05
CGA:   6    -0.924921389776E+02   -0.24978E-03   -0.24990E-03  8064   0.180E-02-0.200E-06
CGA:   7    -0.924923705468E+02   -0.23157E-03   -0.23146E-03  8064   0.111E-02 0.184E-05
CGA:   8    -0.924924312082E+02   -0.60661E-04   -0.60666E-04  8064   0.879E-03 0.917E-07
CGA:   9    -0.924924655575E+02   -0.34349E-04   -0.34340E-04  8064   0.364E-03-0.307E-06
CGA:  10    -0.924925210762E+02   -0.55519E-04   -0.55689E-04  8064   0.187E-03-0.215E-05
CGA:  11    -0.924925297225E+02   -0.86462E-05   -0.86392E-05  8064   0.195E-03-0.221E-06
CGA:  12    -0.924925487739E+02   -0.19051E-04   -0.19059E-04  8064   0.816E-04-0.384E-06
CGA:  13    -0.924925535665E+02   -0.47925E-05   -0.47934E-05  8064   0.527E-04 0.263E-07
CGA:  14    -0.924925558234E+02   -0.22570E-05   -0.22599E-05  8064   0.387E-04 0.956E-07
CGA:  15    -0.924925596515E+02   -0.38280E-05   -0.38178E-05  8064   0.126E-04 0.413E-06
CGA:  16    -0.924925604149E+02   -0.76346E-06   -0.76749E-06  8064   0.122E-04 0.204E-06
   9 F= -.92492560E+02 E0= -.92493812E+02  d E =-.174393E-02  mag=     2.9507
       N       E                     dE             d eps       ncg     rms          ort
SDA:   1    -0.924772035378E+02    0.15356E-01    0.00000E+00  8064   0.600E-01 0.000E+00
CGA:   2    -0.924832474908E+02   -0.60440E-02   -0.60438E-02  8064   0.772E-01-0.140E-05
CGA:   3    -0.924856412924E+02   -0.23938E-02   -0.23938E-02  8064   0.239E-01-0.768E-05
CGA:   4    -0.924893665168E+02   -0.37252E-02   -0.37239E-02  8064   0.258E-01 0.130E-04
CGA:   5    -0.924910332669E+02   -0.16668E-02   -0.16666E-02  8064   0.980E-02-0.304E-05
CGA:   6    -0.924914117553E+02   -0.37849E-03   -0.37850E-03  8064   0.672E-02 0.162E-05
CGA:   7    -0.924920949879E+02   -0.68323E-03   -0.68315E-03  8064   0.188E-02 0.236E-05
CGA:   8    -0.924921798243E+02   -0.84836E-04   -0.84809E-04  8064   0.195E-02-0.137E-05
CGA:   9    -0.924923431374E+02   -0.16331E-03   -0.16335E-03  8064   0.101E-02-0.343E-05
CGA:  10    -0.924924291933E+02   -0.86056E-04   -0.86072E-04  8064   0.461E-03-0.139E-05
CGA:  11    -0.924924593249E+02   -0.30132E-04   -0.30133E-04  8064   0.740E-03 0.706E-07
CGA:  12    -0.924925051116E+02   -0.45787E-04   -0.45793E-04  8064   0.190E-03 0.449E-06
CGA:  13    -0.924925170549E+02   -0.11943E-04   -0.11945E-04  8064   0.141E-03 0.156E-06
CGA:  14    -0.924925240151E+02   -0.69601E-05   -0.69675E-05  8064   0.121E-03 0.286E-06
CGA:  15    -0.924925342912E+02   -0.10276E-04   -0.10268E-04  8064   0.237E-04 0.678E-06
CGA:  16    -0.924925360915E+02   -0.18003E-05   -0.17989E-05  8064   0.414E-04 0.288E-06
CGA:  17    -0.924925381329E+02   -0.20414E-05   -0.20515E-05  8064   0.877E-05 0.399E-06
CGA:  18    -0.924925388771E+02   -0.74420E-06   -0.74265E-06  8064   0.940E-05 0.129E-06
  10 F= -.92492539E+02 E0= -.92493848E+02  d E =-.172239E-02  mag=     2.9455
       N       E                     dE             d eps       ncg     rms          ort
SDA:   1    -0.924639636328E+02    0.28575E-01    0.00000E+00  8064   0.123E+00 0.000E+00
CGA:   2    -0.924745102913E+02   -0.10547E-01   -0.10547E-01  8064   0.165E+00-0.223E-04
CGA:   3    -0.924798512267E+02   -0.53409E-02   -0.53416E-02  8064   0.407E-01-0.253E-04
CGA:   4    -0.924890489847E+02   -0.91978E-02   -0.91956E-02  8064   0.262E-01 0.132E-04
CGA:   5    -0.924903095144E+02   -0.12605E-02   -0.12600E-02  8064   0.197E-01 0.346E-05
CGA:   6    -0.924912733687E+02   -0.96385E-03   -0.96401E-03  8064   0.897E-02-0.913E-06
CGA:   7    -0.924920786772E+02   -0.80531E-03   -0.80532E-03  8064   0.458E-02-0.118E-05
CGA:   8    -0.924922299993E+02   -0.15132E-03   -0.15132E-03  8064   0.230E-02-0.548E-06
CGA:   9    -0.924924540967E+02   -0.22410E-03   -0.22410E-03  8064   0.181E-02-0.186E-06
CGA:  10    -0.924926015492E+02   -0.14745E-03   -0.14746E-03  8064   0.640E-03-0.409E-06
CGA:  11    -0.924926334453E+02   -0.31896E-04   -0.31896E-04  8064   0.802E-03-0.104E-06
CGA:  12    -0.924927108708E+02   -0.77425E-04   -0.77413E-04  8064   0.232E-03 0.480E-06
CGA:  13    -0.924927226669E+02   -0.11796E-04   -0.11800E-04  8064   0.247E-03 0.146E-06
CGA:  14    -0.924927386172E+02   -0.15950E-04   -0.15952E-04  8064   0.114E-03 0.178E-06
CGA:  15    -0.924927489348E+02   -0.10318E-04   -0.10310E-04  8064   0.515E-04 0.417E-06
CGA:  16    -0.924927510015E+02   -0.20668E-05   -0.20709E-05  8064   0.393E-04 0.136E-06
CGA:  17    -0.924927544569E+02   -0.34553E-05   -0.34515E-05  8064   0.188E-04 0.341E-06
CGA:  18    -0.924927555304E+02   -0.10735E-05   -0.10724E-05  8064   0.158E-04 0.270E-07
CGA:  19    -0.924927563052E+02   -0.77485E-06   -0.77275E-06  8064   0.891E-05-0.750E-07
  11 F= -.92492756E+02 E0= -.92494019E+02  d E =-.217428E-03  mag=     2.9533
       N       E                     dE             d eps       ncg     rms          ort
SDA:   1    -0.924194738967E+02    0.73282E-01    0.00000E+00  8064   0.299E+00 0.000E+00
CGA:   2    -0.924519481731E+02   -0.32474E-01   -0.32474E-01  8064   0.257E+00-0.372E-05
CGA:   3    -0.924602811651E+02   -0.83330E-02   -0.83242E-02  8064   0.129E+00 0.138E-03
CGA:   4    -0.924808182332E+02   -0.20537E-01   -0.20544E-01  8064   0.126E+00-0.868E-04
CGA:   5    -0.924857940423E+02   -0.49758E-02   -0.49796E-02  8064   0.545E-01-0.456E-04
CGA:   6    -0.924882112539E+02   -0.24172E-02   -0.24188E-02  8064   0.230E-01-0.796E-05
CGA:   7    -0.924911326936E+02   -0.29214E-02   -0.29216E-02  8064   0.724E-02-0.243E-05
CGA:   8    -0.924914248573E+02   -0.29216E-03   -0.29215E-03  8064   0.694E-02 0.273E-06
CGA:   9    -0.924921972460E+02   -0.77239E-03   -0.77246E-03  8064   0.270E-02-0.228E-05
CGA:  10    -0.924923349001E+02   -0.13765E-03   -0.13764E-03  8064   0.238E-02-0.354E-06
CGA:  11    -0.924924828610E+02   -0.14796E-03   -0.14797E-03  8064   0.192E-02 0.686E-06
CGA:  12    -0.924926480373E+02   -0.16518E-03   -0.16516E-03  8064   0.522E-03 0.967E-06
CGA:  13    -0.924926740748E+02   -0.26037E-04   -0.26040E-04  8064   0.653E-03 0.211E-06
CGA:  14    -0.924927301718E+02   -0.56097E-04   -0.56095E-04  8064   0.192E-03 0.201E-06
CGA:  15    -0.924927410107E+02   -0.10839E-04   -0.10848E-04  8064   0.187E-03 0.540E-06
CGA:  16    -0.924927511038E+02   -0.10093E-04   -0.10111E-04  8064   0.928E-04 0.908E-06
CGA:  17    -0.924927580602E+02   -0.69564E-05   -0.69553E-05  8064   0.373E-04 0.537E-06
CGA:  18    -0.924927601955E+02   -0.21353E-05   -0.21323E-05  8064   0.498E-04-0.121E-06
CGA:  19    -0.924927636160E+02   -0.34205E-05   -0.34194E-05  8064   0.110E-04-0.513E-06
CGA:  20    -0.924927642693E+02   -0.65327E-06   -0.65387E-06  8064   0.131E-04 0.767E-07
  12 F= -.92492764E+02 E0= -.92493938E+02  d E =-.225392E-03  mag=     2.9649
       N       E                     dE             d eps       ncg     rms          ort
SDA:   1    -0.924889096919E+02    0.38539E-02    0.00000E+00  8064   0.262E-01 0.000E+00
CGA:   2    -0.924899303566E+02   -0.10207E-02   -0.10203E-02  8064   0.182E-01 0.990E-06
CGA:   3    -0.924910069061E+02   -0.10765E-02   -0.10766E-02  8064   0.758E-02-0.965E-06
CGA:   4    -0.924916171777E+02   -0.61027E-03   -0.61025E-03  8064   0.854E-02 0.230E-06
CGA:   5    -0.924920470404E+02   -0.42986E-03   -0.42984E-03  8064   0.712E-02-0.141E-05
CGA:   6    -0.924925531023E+02   -0.50606E-03   -0.50608E-03  8064   0.105E-02-0.403E-05
CGA:   7    -0.924926537220E+02   -0.10062E-03   -0.10062E-03  8064   0.129E-02-0.199E-06
CGA:   8    -0.924927059841E+02   -0.52262E-04   -0.52252E-04  8064   0.659E-03-0.540E-06
CGA:   9    -0.924927484851E+02   -0.42501E-04   -0.42501E-04  8064   0.203E-03-0.287E-06
CGA:  10    -0.924927609008E+02   -0.12416E-04   -0.12418E-04  8064   0.307E-03 0.362E-06
CGA:  11    -0.924927821251E+02   -0.21224E-04   -0.21223E-04  8064   0.626E-04 0.771E-06
CGA:  12    -0.924927883261E+02   -0.62010E-05   -0.61951E-05  8064   0.816E-04 0.175E-06
CGA:  13    -0.924927928407E+02   -0.45146E-05   -0.45144E-05  8064   0.722E-04-0.444E-08
CGA:  14    -0.924927965600E+02   -0.37193E-05   -0.37186E-05  8064   0.156E-04-0.134E-07
CGA:  15    -0.924927977561E+02   -0.11961E-05   -0.11970E-05  8064   0.272E-04-0.105E-06
CGA:  16    -0.924927991208E+02   -0.13647E-05   -0.13621E-05  8064   0.642E-05-0.213E-06
CGA:  17    -0.924927996686E+02   -0.54774E-06   -0.55031E-06  8064   0.397E-05-0.127E-06
  13 F= -.92492800E+02 E0= -.92493990E+02  d E =-.260791E-03  mag=     2.9619
       N       E                     dE             d eps       ncg     rms          ort
SDA:   1    -0.924816011419E+02    0.11198E-01    0.00000E+00  8064   0.514E-01 0.000E+00
CGA:   2    -0.924850466380E+02   -0.34455E-02   -0.34455E-02  8064   0.700E-01-0.123E-04
CGA:   3    -0.924878112526E+02   -0.27646E-02   -0.27643E-02  8064   0.152E-01-0.174E-05
CGA:   4    -0.924910096258E+02   -0.31984E-02   -0.31989E-02  8064   0.225E-01-0.394E-05
CGA:   5    -0.924917385724E+02   -0.72895E-03   -0.72892E-03  8064   0.696E-02-0.518E-05
CGA:   6    -0.924921519812E+02   -0.41341E-03   -0.41338E-03  8064   0.359E-02-0.167E-05
CGA:   7    -0.924925317755E+02   -0.37979E-03   -0.37977E-03  8064   0.238E-02 0.304E-06
CGA:   8    -0.924925968072E+02   -0.65032E-04   -0.65047E-04  8064   0.735E-03-0.230E-06
CGA:   9    -0.924927133571E+02   -0.11655E-03   -0.11645E-03  8064   0.529E-03 0.112E-05
CGA:  10    -0.924927442140E+02   -0.30857E-04   -0.30864E-04  8064   0.422E-03 0.289E-06
CGA:  11    -0.924927627739E+02   -0.18560E-04   -0.18569E-04  8064   0.225E-03 0.259E-06
CGA:  12    -0.924927905337E+02   -0.27760E-04   -0.27765E-04  8064   0.150E-03-0.917E-07
CGA:  13    -0.924927955763E+02   -0.50425E-05   -0.50377E-05  8064   0.784E-04-0.125E-06
CGA:  14    -0.924928025251E+02   -0.69488E-05   -0.69540E-05  8064   0.533E-04-0.301E-06
CGA:  15    -0.924928066114E+02   -0.40863E-05   -0.40876E-05  8064   0.263E-04-0.236E-06
CGA:  16    -0.924928076303E+02   -0.10189E-05   -0.10188E-05  8064   0.174E-04-0.184E-07
CGA:  17    -0.924928093531E+02   -0.17228E-05   -0.17235E-05  8064   0.653E-05-0.275E-08
CGA:  18    -0.924928096532E+02   -0.30010E-06   -0.29819E-06  8064   0.667E-05-0.539E-07
  14 F= -.92492810E+02 E0= -.92494034E+02  d E =-.270776E-03  mag=     2.9573
