 vasp.6.4.3 19Mar24 (build Mar 26 2024 14:05:37) complex                        
  
 executed on             LinuxIFC date 2024.12.16  11:44:06
 running  128 mpi-ranks, on    1 nodes
 distrk:  each k-point on   32 cores,    4 groups
 distr:  one band on NCORE=   1 cores,   32 groups


--------------------------------------------------------------------------------------------------------


 INCAR:
   ALGO = All
   EDIFF = 1e-06
   EDIFFG = -0.01
   ENCUT = 520
   GGA = Pe
   IBRION = 2
   ISIF = 4
   ISMEAR = 1
   ISPIN = 2
   KPAR = 4
   LCHARG = True
   LORBIT = 11
   LREAL = False
   LWAVE = False
   MAGMOM = 1*-2.798 2*2.817 1*-2.834 1*-2.833 1*2.941 1*-2.798 2*2.817 2*-0.077 1*0.252
   NELM = 200
   NSW = 100
   PREC = Accurate
   SIGMA = 0.2

 POTCAR:    PAW_PBE Fe_pv 02Aug2007               
 POTCAR:    PAW_PBE Pt 04Feb2005                  
 -----------------------------------------------------------------------------
|                                                                             |
|           W    W    AA    RRRRR   N    N  II  N    N   GGGG   !!!           |
|           W    W   A  A   R    R  NN   N  II  NN   N  G    G  !!!           |
|           W    W  A    A  R    R  N N  N  II  N N  N  G       !!!           |
|           W WW W  AAAAAA  RRRRR   N  N N  II  N  N N  G  GGG   !            |
|           WW  WW  A    A  R   R   N   NN  II  N   NN  G    G                |
|           W    W  A    A  R    R  N    N  II  N    N   GGGG   !!!           |
|                                                                             |
|     For optimal performance we recommend to set                             |
|       NCORE = 2 up to number-of-cores-per-socket                            |
|     NCORE specifies how many cores store one orbital (NPAR=cpu/NCORE).      |
|     This setting can greatly improve the performance of VASP for DFT.       |
|     The default, NCORE=1 might be grossly inefficient on modern             |
|     multi-core architectures or massively parallel machines. Do your        |
|     own testing! More info at https://www.vasp.at/wiki/index.php/NCORE      |
|     Unfortunately you need to use the default for GW and RPA                |
|     calculations (for HF NCORE is supported but not extensively tested      |
|     yet).                                                                   |
|                                                                             |
 -----------------------------------------------------------------------------

 POTCAR:    PAW_PBE Fe_pv 02Aug2007               
   SHA256 =  5d22e414b1f82158bf2c7ecb8b97b28fd0923e48cadc1c3bf74d524558f5dd32 Fe_pv/POTCAR          
   COPYR  = (c) Copyright 02Aug2007 Georg Kresse                                                    
   COPYR  = This file is part of the software VASP. Any use, copying, and all other rights are regul
   COPYR  = If you do not have a valid VASP license, you may not use, copy or distribute this file. 
   VRHFIN =Fe:  3pd7s1                                                                              
   LEXCH  = PE                                                                                      
   EATOM  =  2457.4239 eV,  180.6156 Ry                                                             
                                                                                                    
   TITEL  = PAW_PBE Fe_pv 02Aug2007                                                                 
   LULTRA =        F    use ultrasoft PP ?                                                          
   IUNSCR =        1    unscreen: 0-lin 1-nonlin 2-no                                               
   RPACOR =    1.750    partial core radius                                                         
   POMASS =   55.847; ZVAL   =   14.000    mass and valenz                                          
   RCORE  =    2.200    outmost cutoff radius                                                       
   RWIGS  =    2.200; RWIGS  =    1.164    wigner-seitz radius (au A)                               
   ENMAX  =  293.238; ENMIN  =  219.928 eV                                                          
   ICORE  =        3    local potential                                                             
   LCOR   =        T    correct aug charges                                                         
   LPAW   =        T    paw PP                                                                      
   EAUG   =  578.342                                                                                
   DEXC   =    0.000                                                                                
   RMAX   =    2.249    core radius for proj-oper                                                   
   RAUG   =    1.300    factor for augmentation sphere                                              
   RDEP   =    2.296    radius for radial grids                                                     
   RDEPT  =    1.766    core radius for aug-charge                                                  
                                                                                                    
   Atomic configuration                                                                             
    8 entries                                                                                       
     n  l   j            E        occ.                                                              
     1  0  0.50     -6993.8440   2.0000                                                             
     2  0  0.50      -814.6047   2.0000                                                             
     2  1  1.50      -693.3689   6.0000                                                             
     3  0  0.50       -89.4732   2.0000                                                             
     3  1  1.50       -55.6373   6.0000                                                             
     3  2  2.50        -3.8151   7.0000                                                             
     4  0  0.50        -4.2551   1.0000                                                             
     4  3  2.50        -1.3606   0.0000                                                             
   Description                                                                                      
     l       E           TYP  RCUT    TYP  RCUT                                                     
     1    -55.6372668     23  2.000                                                                 
     1     -5.4423304     23  2.000                                                                 
     2     -3.8151096     23  2.200                                                                 
     2     -5.1756922     23  2.200                                                                 
     0     -4.2550951     23  2.200                                                                 
     0     27.2116520     23  2.200                                                                 
     3     -1.3605826     23  2.200                                                                 
  local pseudopotential read in
  partial core-charges read in
  partial kinetic energy density read in
  atomic valenz-charges read in
  non local Contribution for L=           1  read in
    real space projection operators read in
  non local Contribution for L=           1  read in
    real space projection operators read in
  non local Contribution for L=           2  read in
    real space projection operators read in
  non local Contribution for L=           2  read in
    real space projection operators read in
  non local Contribution for L=           0  read in
    real space projection operators read in
  non local Contribution for L=           0  read in
    real space projection operators read in
    PAW grid and wavefunctions read in
 
   number of l-projection  operators is LMAX  =           6
   number of lm-projection operators is LMMAX =          18
 
 POTCAR:    PAW_PBE Pt 04Feb2005                  
   SHA256 =  3ed90460adef76debcff1cfb73ee1349b515b1a3db03439735b44de3a8db7dc8 Pt/POTCAR             
   COPYR  = (c) Copyright 04Feb2005 Georg Kresse                                                    
   COPYR  = This file is part of the software VASP. Any use, copying, and all other rights are regul
   COPYR  = If you do not have a valid VASP license, you may not use, copy or distribute this file. 
   VRHFIN =Pt: s1d9                                                                                 
   LEXCH  = PE                                                                                      
   EATOM  =   729.1176 eV,   53.5886 Ry                                                             
                                                                                                    
   TITEL  = PAW_PBE Pt 04Feb2005                                                                    
   LULTRA =        F    use ultrasoft PP ?                                                          
   IUNSCR =        1    unscreen: 0-lin 1-nonlin 2-no                                               
   RPACOR =    2.330    partial core radius                                                         
   POMASS =  195.080; ZVAL   =   10.000    mass and valenz                                          
   RCORE  =    2.600    outmost cutoff radius                                                       
   RWIGS  =    2.750; RWIGS  =    1.455    wigner-seitz radius (au A)                               
   ENMAX  =  230.283; ENMIN  =  172.712 eV                                                          
   ICORE  =        3    local potential                                                             
   LCOR   =        T    correct aug charges                                                         
   LPAW   =        T    paw PP                                                                      
   EAUG   =  358.966                                                                                
   DEXC   =    0.000                                                                                
   RMAX   =    2.658    core radius for proj-oper                                                   
   RAUG   =    1.300    factor for augmentation sphere                                              
   RDEP   =    2.761    radius for radial grids                                                     
   RDEPT  =    2.203    core radius for aug-charge                                                  
                                                                                                    
   Atomic configuration                                                                             
   16 entries                                                                                       
     n  l   j            E        occ.                                                              
     1  0  0.50    -78401.1885   2.0000                                                             
     2  0  0.50    -13770.7750   2.0000                                                             
     2  1  1.50    -11931.0468   6.0000                                                             
     3  0  0.50     -3234.7234   2.0000                                                             
     3  1  1.50     -2699.2216   6.0000                                                             
     3  2  2.50     -2119.5714  10.0000                                                             
     4  0  0.50      -695.1528   2.0000                                                             
     4  1  1.50      -519.6034   6.0000                                                             
     4  2  2.50      -306.6786  10.0000                                                             
     4  3  3.50       -70.1041  14.0000                                                             
     5  0  0.50      -101.7747   2.0000                                                             
     5  1  1.50       -55.9873   6.0000                                                             
     5  2  2.50        -6.1423   9.0000                                                             
     6  0  0.50        -5.6573   1.0000                                                             
     6  1  1.50        -6.8029   0.0000                                                             
     5  3  2.50        -1.3606   0.0000                                                             
   Description                                                                                      
     l       E           TYP  RCUT    TYP  RCUT                                                     
     2     -6.1423404     23  2.500                                                                 
     2     -7.5029230     23  2.500                                                                 
     0     -5.6573207     23  2.500                                                                 
     0      0.7416693     23  2.500                                                                 
     1     -2.7211652     23  2.600                                                                 
     1     20.4087390     23  2.600                                                                 
     3     -1.3605826     23  2.500                                                                 
  local pseudopotential read in
  partial core-charges read in
  partial kinetic energy density read in
  atomic valenz-charges read in
  non local Contribution for L=           2  read in
    real space projection operators read in
  non local Contribution for L=           2  read in
    real space projection operators read in
  non local Contribution for L=           0  read in
    real space projection operators read in
  non local Contribution for L=           0  read in
    real space projection operators read in
  non local Contribution for L=           1  read in
    real space projection operators read in
  non local Contribution for L=           1  read in
    real space projection operators read in
    PAW grid and wavefunctions read in
 
   number of l-projection  operators is LMAX  =           6
   number of lm-projection operators is LMMAX =          18
 
  PAW_PBE Fe_pv 02Aug2007               :
 energy of atom  1       EATOM=-2457.4239
 kinetic energy error for atom=    0.0062 (will be added to EATOM!!)
  PAW_PBE Pt 04Feb2005                  :
 energy of atom  2       EATOM= -729.1176
 kinetic energy error for atom=    0.0032 (will be added to EATOM!!)
 
 
 POSCAR: Fe9 Pt3
  positions in direct lattice
  velocities in cartesian coordinates


 exchange-correlation table for PE
   RHO(1)=    0.500       N(1)  =     2000
   RHO(2)=  100.500       N(2)  =     4000
 


--------------------------------------------------------------------------------------------------------


 ion  position               nearest neighbor table
   1  0.000  0.500  0.167-   5 2.63   5 2.63   4 2.63   4 2.63   7 2.71   7 2.71   7 2.71   7 2.71
                            11 2.77  11 2.77  10 2.77  10 2.77
   2  0.000  0.500  0.500-  11 2.70  11 2.70   8 2.71   8 2.71   8 2.71   8 2.71   6 2.73   6 2.73
                            12 2.73  12 2.73
   3  0.000  0.500  0.833-  10 2.71  10 2.71   9 2.71   9 2.71   9 2.71   9 2.71  12 2.73  12 2.73
                             6 2.73   6 2.73
   4  0.500  0.500  0.013-   1 2.63   7 2.63   7 2.63   1 2.63  10 2.72  10 2.72  10 2.72  10 2.72

   5  0.500  0.500  0.321-   1 2.63   7 2.63   7 2.63   1 2.63  11 2.72  11 2.72  11 2.72  11 2.72

   6  0.500  0.500  0.667-  12 2.71  12 2.71  12 2.71  12 2.71   9 2.73   3 2.73   3 2.73   9 2.73
                             2 2.73   8 2.73   2 2.73   8 2.73
   7  0.500  0.000  0.167-   5 2.63   5 2.63   4 2.63   4 2.63   1 2.71   1 2.71   1 2.71   1 2.71
                            11 2.77  11 2.77  10 2.77  10 2.77
   8  0.500  0.000  0.500-  11 2.70  11 2.70   2 2.71   2 2.71   2 2.71   2 2.71   6 2.73   6 2.73
                            12 2.73  12 2.73
   9  0.500  0.000  0.833-  10 2.71  10 2.71   3 2.71   3 2.71   3 2.71   3 2.71  12 2.73  12 2.73
                             6 2.73   6 2.73
  10  0.000  0.000  0.996-   3 2.71   9 2.71   3 2.71   9 2.71   4 2.72   4 2.72   4 2.72   4 2.72
                             1 2.77   7 2.77   7 2.77   1 2.77
  11  0.000  0.000  0.337-   2 2.70   8 2.70   2 2.70   8 2.70   5 2.72   5 2.72   5 2.72   5 2.72
                             1 2.77   7 2.77   7 2.77   1 2.77
  12  0.000  0.000  0.667-   6 2.71   6 2.71   6 2.71   6 2.71   3 2.73   9 2.73   9 2.73   3 2.73
                             2 2.73   8 2.73   8 2.73   2 2.73
 
  LATTYP: Found a simple tetragonal cell.
 ALAT       =     3.8302803509
 C/A-ratio  =     3.0608127315
  
  Lattice vectors:
  
 A1 = (   3.8302803509,   0.0000000000,   0.0000000000)
 A2 = (   0.0000000000,   3.8302803509,   0.0000000000)
 A3 = (   0.0000000000,   0.0000000000,  11.7237708634)


Analysis of symmetry for initial positions (statically):
=====================================================================
 Subroutine PRICEL returns:
 Original cell was already a primitive cell.
 

 Routine SETGRP: Setting up the symmetry group for a 
 simple tetragonal supercell.


 Subroutine GETGRP returns: Found  8 space group operations
 (whereof  8 operations were pure point group operations)
 out of a pool of 16 trial point group operations.


The static configuration has the point symmetry C_4v.


Analysis of symmetry for dynamics (positions and initial velocities):
=====================================================================
 Subroutine PRICEL returns:
 Original cell was already a primitive cell.
 

 Routine SETGRP: Setting up the symmetry group for a 
 simple tetragonal supercell.


 Subroutine GETGRP returns: Found  8 space group operations
 (whereof  8 operations were pure point group operations)
 out of a pool of 16 trial point group operations.


The dynamic configuration has the point symmetry C_4v.


Analysis of structural, dynamic, and magnetic symmetry:
=====================================================================
 Subroutine PRICEL returns:
 Original cell was already a primitive cell.
 

 Routine SETGRP: Setting up the symmetry group for a 
 simple tetragonal supercell.


 Subroutine GETGRP returns: Found  8 space group operations
 (whereof  8 operations were pure point group operations)
 out of a pool of 16 trial point group operations.


The overall configuration has the point symmetry C_4v.


 Subroutine INISYM returns: Found  8 space group operations
 (whereof  8 operations are pure point group operations),
 and found     1 'primitive' translations


----------------------------------------------------------------------------------------

                                     Primitive cell                                     

  volume of cell :     172.0000

  direct lattice vectors                    reciprocal lattice vectors
     3.830280351  0.000000000  0.000000000     0.261077495  0.000000000  0.000000000
     0.000000000  3.830280351  0.000000000     0.000000000  0.261077495  0.000000000
     0.000000000  0.000000000 11.723770863     0.000000000  0.000000000  0.085296788

  length of vectors
     3.830280351  3.830280351 11.723770863     0.261077495  0.261077495  0.085296788

  position of ions in fractional coordinates (direct lattice)
     0.000000000  0.500000000  0.166699872
     0.000000000  0.500000000  0.500213097
     0.000000000  0.500000000  0.833067178
     0.500000000  0.500000000  0.012676786
     0.500000000  0.500000000  0.320704637
     0.500000000  0.500000000  0.666642193
     0.500000000  0.000000000  0.166699872
     0.500000000  0.000000000  0.500213097
     0.500000000  0.000000000  0.833067178
     0.000000000  0.000000000  0.996021240
     0.000000000  0.000000000  0.337293030
     0.000000000  0.000000000  0.666701822

  ion indices of the primitive-cell ions
   primitive index   ion index
                 1           1
                 2           2
                 3           3
                 4           4
                 5           5
                 6           6
                 7           7
                 8           8
                 9           9
                10          10
                11          11
                12          12

----------------------------------------------------------------------------------------

 
 
 KPOINTS: pymatgen with grid density = 8800 / numb

Automatic generation of k-mesh.
 Grid dimensions read from file:
 generate k-points for:   13   13    4

 Generating k-lattice:

  Cartesian coordinates                     Fractional coordinates (reciprocal lattice)
     0.020082884  0.000000000  0.000000000     0.076923077  0.000000000  0.000000000
     0.000000000  0.020082884  0.000000000     0.000000000  0.076923077  0.000000000
     0.000000000  0.000000000  0.021324197     0.000000000  0.000000000  0.250000000

  Length of vectors
     0.020082884  0.020082884  0.021324197

  Shift w.r.t. Gamma in fractional coordinates (k-lattice)
     0.000000000  0.000000000  0.000000000

 
 Subroutine IBZKPT returns following result:
 ===========================================
 
 Found     84 irreducible k-points:
 
 Following reciprocal coordinates:
            Coordinates               Weight
  0.000000  0.000000  0.000000      1.000000
  0.076923  0.000000  0.000000      4.000000
  0.153846  0.000000  0.000000      4.000000
  0.230769  0.000000  0.000000      4.000000
  0.307692  0.000000  0.000000      4.000000
  0.384615  0.000000  0.000000      4.000000
  0.461538  0.000000  0.000000      4.000000
  0.076923  0.076923  0.000000      4.000000
  0.153846  0.076923  0.000000      8.000000
  0.230769  0.076923  0.000000      8.000000
  0.307692  0.076923  0.000000      8.000000
  0.384615  0.076923  0.000000      8.000000
  0.461538  0.076923  0.000000      8.000000
  0.153846  0.153846  0.000000      4.000000
  0.230769  0.153846  0.000000      8.000000
  0.307692  0.153846  0.000000      8.000000
  0.384615  0.153846  0.000000      8.000000
  0.461538  0.153846  0.000000      8.000000
  0.230769  0.230769  0.000000      4.000000
  0.307692  0.230769  0.000000      8.000000
  0.384615  0.230769  0.000000      8.000000
  0.461538  0.230769  0.000000      8.000000
  0.307692  0.307692  0.000000      4.000000
  0.384615  0.307692  0.000000      8.000000
  0.461538  0.307692  0.000000      8.000000
  0.384615  0.384615  0.000000      4.000000
  0.461538  0.384615  0.000000      8.000000
  0.461538  0.461538  0.000000      4.000000
  0.000000  0.000000  0.250000      2.000000
  0.076923  0.000000  0.250000      8.000000
  0.153846  0.000000  0.250000      8.000000
  0.230769  0.000000  0.250000      8.000000
  0.307692  0.000000  0.250000      8.000000
  0.384615  0.000000  0.250000      8.000000
  0.461538  0.000000  0.250000      8.000000
  0.076923  0.076923  0.250000      8.000000
  0.153846  0.076923  0.250000     16.000000
  0.230769  0.076923  0.250000     16.000000
  0.307692  0.076923  0.250000     16.000000
  0.384615  0.076923  0.250000     16.000000
  0.461538  0.076923  0.250000     16.000000
  0.153846  0.153846  0.250000      8.000000
  0.230769  0.153846  0.250000     16.000000
  0.307692  0.153846  0.250000     16.000000
  0.384615  0.153846  0.250000     16.000000
  0.461538  0.153846  0.250000     16.000000
  0.230769  0.230769  0.250000      8.000000
  0.307692  0.230769  0.250000     16.000000
  0.384615  0.230769  0.250000     16.000000
  0.461538  0.230769  0.250000     16.000000
  0.307692  0.307692  0.250000      8.000000
  0.384615  0.307692  0.250000     16.000000
  0.461538  0.307692  0.250000     16.000000
  0.384615  0.384615  0.250000      8.000000
  0.461538  0.384615  0.250000     16.000000
  0.461538  0.461538  0.250000      8.000000
  0.000000  0.000000  0.500000      1.000000
  0.076923  0.000000  0.500000      4.000000
  0.153846  0.000000  0.500000      4.000000
  0.230769  0.000000  0.500000      4.000000
  0.307692  0.000000  0.500000      4.000000
  0.384615  0.000000  0.500000      4.000000
  0.461538  0.000000  0.500000      4.000000
  0.076923  0.076923  0.500000      4.000000
  0.153846  0.076923  0.500000      8.000000
  0.230769  0.076923  0.500000      8.000000
  0.307692  0.076923  0.500000      8.000000
  0.384615  0.076923  0.500000      8.000000
  0.461538  0.076923  0.500000      8.000000
  0.153846  0.153846  0.500000      4.000000
  0.230769  0.153846  0.500000      8.000000
  0.307692  0.153846  0.500000      8.000000
  0.384615  0.153846  0.500000      8.000000
  0.461538  0.153846  0.500000      8.000000
  0.230769  0.230769  0.500000      4.000000
  0.307692  0.230769  0.500000      8.000000
  0.384615  0.230769  0.500000      8.000000
  0.461538  0.230769  0.500000      8.000000
  0.307692  0.307692  0.500000      4.000000
  0.384615  0.307692  0.500000      8.000000
  0.461538  0.307692  0.500000      8.000000
  0.384615  0.384615  0.500000      4.000000
  0.461538  0.384615  0.500000      8.000000
  0.461538  0.461538  0.500000      4.000000
 
 Following cartesian coordinates:
            Coordinates               Weight
  0.000000  0.000000  0.000000      1.000000
  0.020083  0.000000  0.000000      4.000000
  0.040166  0.000000  0.000000      4.000000
  0.060249  0.000000  0.000000      4.000000
  0.080332  0.000000  0.000000      4.000000
  0.100414  0.000000  0.000000      4.000000
  0.120497  0.000000  0.000000      4.000000
  0.020083  0.020083  0.000000      4.000000
  0.040166  0.020083  0.000000      8.000000
  0.060249  0.020083  0.000000      8.000000
  0.080332  0.020083  0.000000      8.000000
  0.100414  0.020083  0.000000      8.000000
  0.120497  0.020083  0.000000      8.000000
  0.040166  0.040166  0.000000      4.000000
  0.060249  0.040166  0.000000      8.000000
  0.080332  0.040166  0.000000      8.000000
  0.100414  0.040166  0.000000      8.000000
  0.120497  0.040166  0.000000      8.000000
  0.060249  0.060249  0.000000      4.000000
  0.080332  0.060249  0.000000      8.000000
  0.100414  0.060249  0.000000      8.000000
  0.120497  0.060249  0.000000      8.000000
  0.080332  0.080332  0.000000      4.000000
  0.100414  0.080332  0.000000      8.000000
  0.120497  0.080332  0.000000      8.000000
  0.100414  0.100414  0.000000      4.000000
  0.120497  0.100414  0.000000      8.000000
  0.120497  0.120497  0.000000      4.000000
  0.000000  0.000000  0.021324      2.000000
  0.020083  0.000000  0.021324      8.000000
  0.040166  0.000000  0.021324      8.000000
  0.060249  0.000000  0.021324      8.000000
  0.080332  0.000000  0.021324      8.000000
  0.100414  0.000000  0.021324      8.000000
  0.120497  0.000000  0.021324      8.000000
  0.020083  0.020083  0.021324      8.000000
  0.040166  0.020083  0.021324     16.000000
  0.060249  0.020083  0.021324     16.000000
  0.080332  0.020083  0.021324     16.000000
  0.100414  0.020083  0.021324     16.000000
  0.120497  0.020083  0.021324     16.000000
  0.040166  0.040166  0.021324      8.000000
  0.060249  0.040166  0.021324     16.000000
  0.080332  0.040166  0.021324     16.000000
  0.100414  0.040166  0.021324     16.000000
  0.120497  0.040166  0.021324     16.000000
  0.060249  0.060249  0.021324      8.000000
  0.080332  0.060249  0.021324     16.000000
  0.100414  0.060249  0.021324     16.000000
  0.120497  0.060249  0.021324     16.000000
  0.080332  0.080332  0.021324      8.000000
  0.100414  0.080332  0.021324     16.000000
  0.120497  0.080332  0.021324     16.000000
  0.100414  0.100414  0.021324      8.000000
  0.120497  0.100414  0.021324     16.000000
  0.120497  0.120497  0.021324      8.000000
  0.000000  0.000000  0.042648      1.000000
  0.020083  0.000000  0.042648      4.000000
  0.040166  0.000000  0.042648      4.000000
  0.060249  0.000000  0.042648      4.000000
  0.080332  0.000000  0.042648      4.000000
  0.100414  0.000000  0.042648      4.000000
  0.120497  0.000000  0.042648      4.000000
  0.020083  0.020083  0.042648      4.000000
  0.040166  0.020083  0.042648      8.000000
  0.060249  0.020083  0.042648      8.000000
  0.080332  0.020083  0.042648      8.000000
  0.100414  0.020083  0.042648      8.000000
  0.120497  0.020083  0.042648      8.000000
  0.040166  0.040166  0.042648      4.000000
  0.060249  0.040166  0.042648      8.000000
  0.080332  0.040166  0.042648      8.000000
  0.100414  0.040166  0.042648      8.000000
  0.120497  0.040166  0.042648      8.000000
  0.060249  0.060249  0.042648      4.000000
  0.080332  0.060249  0.042648      8.000000
  0.100414  0.060249  0.042648      8.000000
  0.120497  0.060249  0.042648      8.000000
  0.080332  0.080332  0.042648      4.000000
  0.100414  0.080332  0.042648      8.000000
  0.120497  0.080332  0.042648      8.000000
  0.100414  0.100414  0.042648      4.000000
  0.120497  0.100414  0.042648      8.000000
  0.120497  0.120497  0.042648      4.000000
 


--------------------------------------------------------------------------------------------------------




 Dimension of arrays:
   k-points           NKPTS =     84   k-points in BZ     NKDIM =     84   number of bands    NBANDS=     96
   number of dos      NEDOS =    301   number of ions     NIONS =     12
   non local maximal  LDIM  =      6   non local SUM 2l+1 LMDIM =     18
   total plane-waves  NPLWV =  70560
   max r-space proj   IRMAX =      1   max aug-charges    IRDMAX=  25043
   dimension x,y,z NGX =    28 NGY =   28 NGZ =   90
   dimension x,y,z NGXF=    56 NGYF=   56 NGZF=  180
   support grid    NGXF=    56 NGYF=   56 NGZF=  180
   ions per type =               9   3
   NGX,Y,Z   is equivalent  to a cutoff of  12.15, 12.15, 12.76 a.u.
   NGXF,Y,Z  is equivalent  to a cutoff of  24.31, 24.31, 25.52 a.u.

 SYSTEM =  unknown system                          
 POSCAR =  Fe9 Pt3                                 

 Startparameter for this run:
   NWRITE =      2    write-flag & timer
   PREC   = accura    normal or accurate (medium, high low for compatibility)
   ISTART =      0    job   : 0-new  1-cont  2-samecut
   ICHARG =      2    charge: 1-file 2-atom 10-const
   ISPIN  =      2    spin polarized calculation?
   LNONCOLLINEAR =      F non collinear calculations
   LSORBIT =      F    spin-orbit coupling
   INIWAV =      1    electr: 0-lowe 1-rand  2-diag
   LASPH  =      F    aspherical Exc in radial PAW
 Electronic Relaxation 1
   ENCUT  =  520.0 eV  38.22 Ry    6.18 a.u.   7.12  7.12 21.80*2*pi/ulx,y,z
   ENINI  =  520.0     initial cutoff
   ENAUG  =  578.3 eV  augmentation charge cutoff
   NELM   =    200;   NELMIN=  2; NELMDL=  0     # of ELM steps 
   EDIFF  = 0.1E-05   stopping-criterion for ELM
   LREAL  =      F    real-space projection
   NLSPLINE    = F    spline interpolate recip. space projectors
   LCOMPAT=      F    compatible to vasp.4.4
   GGA_COMPAT  = T    GGA compatible to vasp.4.4-vasp.4.6
   LMAXPAW     = -100 max onsite density
   LMAXMIX     =    2 max onsite mixed and CHGCAR
   VOSKOWN=      0    Vosko Wilk Nusair interpolation
   ROPT   =    0.00000   0.00000
 Ionic relaxation
   EDIFFG = -.1E-01   stopping-criterion for IOM
   NSW    =    100    number of steps for IOM
   NBLOCK =      1;   KBLOCK =    100    inner block; outer block 
   IBRION =      2    ionic relax: 0-MD 1-quasi-New 2-CG
   NFREE  =      1    steps in history (QN), initial steepest desc. (CG)
   ISIF   =      4    stress and relaxation
   IWAVPR =     11    prediction:  0-non 1-charg 2-wave 3-comb
   ISYM   =      2    0-nonsym 1-usesym 2-fastsym
   LCORR  =      T    Harris-Foulkes like correction to forces

   POTIM  = 0.5000    time-step for ionic-motion
   TEIN   =    0.0    initial temperature
   TEBEG  =    0.0;   TEEND  =   0.0 temperature during run
   SMASS  =  -3.00    Nose mass-parameter (am)
   estimated Nose-frequenzy (Omega)   =  0.10E-29 period in steps = 0.13E+47 mass=  -0.335E-27a.u.
   SCALEE = 1.0000    scale energy and forces
   NPACO  =    256;   APACO  = 10.0  distance and # of slots for P.C.
   PSTRESS=    0.0 pullay stress

  Mass of Ions in am
   POMASS =  55.85195.08
  Ionic Valenz
   ZVAL   =  14.00 10.00
  Atomic Wigner-Seitz radii
   RWIGS  =  -1.00 -1.00
  virtual crystal weights 
   VCA    =   1.00  1.00
   NELECT =     156.0000    total number of electrons
   NUPDOWN=      -1.0000    fix difference up-down

 DOS related values:
   EMIN   =  10.00;   EMAX   =-10.00  energy-range for DOS
   EFERMI =   0.00;   METHOD = LEGACY      
   ISMEAR =     1;   SIGMA  =   0.20  broadening in eV -4-tet -1-fermi 0-gaus

 Electronic relaxation 2 (details)
   IALGO  =     58    algorithm
   LDIAG  =      T    sub-space diagonalisation (order eigenvalues)
   LSUBROT=      F    optimize rotation matrix (better conditioning)
   TURBO    =      0    0=normal 1=particle mesh
   IRESTART =      0    0=no restart 2=restart with 2 vectors
   NREBOOT  =      0    no. of reboots
   NMIN     =      0    reboot dimension
   EREF     =   0.00    reference energy to select bands
   IMIX   =      4    mixing-type and parameters
     AMIX     =   0.40;   BMIX     =  1.00
     AMIX_MAG =   1.60;   BMIX_MAG =  1.00
     AMIN     =   0.10
     WC   =   100.;   INIMIX=   1;  MIXPRE=   1;  MAXMIX= -45

 Intra band minimization:
   WEIMIN = 0.0010     energy-eigenvalue tresh-hold
   EBREAK =  0.26E-08  absolut break condition
   DEPER  =   0.30     relativ break condition  

   TIME   =   0.40     timestep for ELM

  volume/ion in A,a.u.               =      14.33        96.73
  Fermi-wavevector in a.u.,A,eV,Ry     =   1.584675  2.994602 34.166882  2.511195
  Thomas-Fermi vector in A             =   2.684256
 
 Write flags
   LWAVE        =      F    write WAVECAR
   LDOWNSAMPLE  =      F    k-point downsampling of WAVECAR
   LCHARG       =      T    write CHGCAR
   LVTOT        =      F    write LOCPOT, total local potential
   LVHAR        =      F    write LOCPOT, Hartree potential only
   WRT_POTENTIAL= false  ! write potential to hdf5 file
   LELF         =      F    write electronic localiz. function (ELF)
   LORBIT       =     11    0 simple, 1 ext, 2 COOP (PROOUT), +10 PAW based schemes


 Dipole corrections
   LMONO      =      F    monopole corrections only (constant potential shift)
   LDIPOL     =      F    correct potential (dipole corrections)
   IDIPOL     =      0    1-x, 2-y, 3-z, 4-all directions 
   EPSILON    =  1.0000000 bulk dielectric constant
   LVACPOTAV  =      F  vacuum potentials using an averaging scheme for the charge density
   VACPOTFLAT =  0.1000000 required flatness to determine vacuum potential
 Exchange correlation treatment:
   GGA     = PE    functional components
   XC_C    = 1    coefficients multiplying the functional components
   LIBXC   =     F    Libxc                    
   VOSKOWN =     0    Vosko Wilk Nusair interpolation
   LHFCALC =     F    Hartree Fock is set to
   LHFONE  =     F    Hartree Fock one center treatment
   AEXX    =    0.0000 exact exchange contribution

 Parameters of functionals:
   PE:
     No parameter
 
 Van der Waals corrections
   IVDW    =     0    specifies the selected vdW correction

 Linear response parameters
   LEPSILON=     F    determine dielectric tensor
   LRPA    =     F    only Hartree local field effects (RPA)
   LNABLA  =     F    use nabla operator in PAW spheres
   LVEL    =     F    velocity operator in full k-point grid
   CSHIFT  =0.1000    complex shift for real part using Kramers Kronig
   OMEGAMAX=  -1.0    maximum frequency
   DEG_THRESHOLD= 0.2000000E-02 threshold for treating states as degnerate
   RTIME   =   -0.100 relaxation time in fs
  (WPLASMAI=    0.000 imaginary part of plasma frequency in eV, 0.658/RTIME)
   DFIELD  = 0.0000000 0.0000000 0.0000000 field for delta impulse in time
 
  Optional k-point grid parameters
   LKPOINTS_OPT  =     F    use optional k-point grid
   KPOINTS_OPT_MODE=     1    mode for optional k-point grid
 
 Orbital magnetization related:
   ORBITALMAG=     F  switch on orbital magnetization
   LCHIMAG   =     F  perturbation theory with respect to B field
   DQ        =  0.001000  dq finite difference perturbation B field
   LLRAUG    =     F  two centre corrections for induced B field
   LBONE     =     F  B-component reconstruction in AE one-centre
   LVGVCALC  =     T  calculate vGv susceptibility
   LVGVAPPL  =     F  apply vGv susceptibility instead of pGv for G=0

 Random number generation:
   RANDOM_GENERATOR = DEFAULT
   PCG_SEED         = not used


--------------------------------------------------------------------------------------------------------


 conjugate gradient relaxation of ions
 charge density and potential will be updated during run
 spin polarized calculation
 Conjugate gradient for all bands (Freysoldt, et al. PRB 79, 241103 (2009))
 preconditioned conjugated gradient                                        
 perform sub-space diagonalisation
    before iterative eigenvector-optimisation
 modified Broyden-mixing scheme, WC =      100.0
 initial mixing is a Kerker type mixing with AMIX =  0.4000 and BMIX =      1.0000
 Hartree-type preconditioning will be used
 using additional bands           18
 reciprocal scheme for non local part
 use partial core corrections
 no Harris-corrections to forces 
 use gradient corrections 
 use of overlap-Matrix (Vanderbilt PP)
 Methfessel and Paxton  Order N= 1 SIGMA  =   0.20


--------------------------------------------------------------------------------------------------------


  energy-cutoff  :      520.00
  volume of cell :      172.00
      direct lattice vectors                 reciprocal lattice vectors
     3.830280351  0.000000000  0.000000000     0.261077495  0.000000000  0.000000000
     0.000000000  3.830280351  0.000000000     0.000000000  0.261077495  0.000000000
     0.000000000  0.000000000 11.723770863     0.000000000  0.000000000  0.085296788

  length of vectors
     3.830280351  3.830280351 11.723770863     0.261077495  0.261077495  0.085296788


 
 k-points in units of 2pi/SCALE and weight: pymatgen with grid density = 8800 / numb
   0.00000000  0.00000000  0.00000000       0.001
   0.02008288  0.00000000  0.00000000       0.006
   0.04016577  0.00000000  0.00000000       0.006
   0.06024865  0.00000000  0.00000000       0.006
   0.08033154  0.00000000  0.00000000       0.006
   0.10041442  0.00000000  0.00000000       0.006
   0.12049731  0.00000000  0.00000000       0.006
   0.02008288  0.02008288  0.00000000       0.006
   0.04016577  0.02008288  0.00000000       0.012
   0.06024865  0.02008288  0.00000000       0.012
   0.08033154  0.02008288  0.00000000       0.012
   0.10041442  0.02008288  0.00000000       0.012
   0.12049731  0.02008288  0.00000000       0.012
   0.04016577  0.04016577  0.00000000       0.006
   0.06024865  0.04016577  0.00000000       0.012
   0.08033154  0.04016577  0.00000000       0.012
   0.10041442  0.04016577  0.00000000       0.012
   0.12049731  0.04016577  0.00000000       0.012
   0.06024865  0.06024865  0.00000000       0.006
   0.08033154  0.06024865  0.00000000       0.012
   0.10041442  0.06024865  0.00000000       0.012
   0.12049731  0.06024865  0.00000000       0.012
   0.08033154  0.08033154  0.00000000       0.006
   0.10041442  0.08033154  0.00000000       0.012
   0.12049731  0.08033154  0.00000000       0.012
   0.10041442  0.10041442  0.00000000       0.006
   0.12049731  0.10041442  0.00000000       0.012
   0.12049731  0.12049731  0.00000000       0.006
   0.00000000  0.00000000  0.02132420       0.003
   0.02008288  0.00000000  0.02132420       0.012
   0.04016577  0.00000000  0.02132420       0.012
   0.06024865  0.00000000  0.02132420       0.012
   0.08033154  0.00000000  0.02132420       0.012
   0.10041442  0.00000000  0.02132420       0.012
   0.12049731  0.00000000  0.02132420       0.012
   0.02008288  0.02008288  0.02132420       0.012
   0.04016577  0.02008288  0.02132420       0.024
   0.06024865  0.02008288  0.02132420       0.024
   0.08033154  0.02008288  0.02132420       0.024
   0.10041442  0.02008288  0.02132420       0.024
   0.12049731  0.02008288  0.02132420       0.024
   0.04016577  0.04016577  0.02132420       0.012
   0.06024865  0.04016577  0.02132420       0.024
   0.08033154  0.04016577  0.02132420       0.024
   0.10041442  0.04016577  0.02132420       0.024
   0.12049731  0.04016577  0.02132420       0.024
   0.06024865  0.06024865  0.02132420       0.012
   0.08033154  0.06024865  0.02132420       0.024
   0.10041442  0.06024865  0.02132420       0.024
   0.12049731  0.06024865  0.02132420       0.024
   0.08033154  0.08033154  0.02132420       0.012
   0.10041442  0.08033154  0.02132420       0.024
   0.12049731  0.08033154  0.02132420       0.024
   0.10041442  0.10041442  0.02132420       0.012
   0.12049731  0.10041442  0.02132420       0.024
   0.12049731  0.12049731  0.02132420       0.012
   0.00000000  0.00000000  0.04264839       0.001
   0.02008288  0.00000000  0.04264839       0.006
   0.04016577  0.00000000  0.04264839       0.006
   0.06024865  0.00000000  0.04264839       0.006
   0.08033154  0.00000000  0.04264839       0.006
   0.10041442  0.00000000  0.04264839       0.006
   0.12049731  0.00000000  0.04264839       0.006
   0.02008288  0.02008288  0.04264839       0.006
   0.04016577  0.02008288  0.04264839       0.012
   0.06024865  0.02008288  0.04264839       0.012
   0.08033154  0.02008288  0.04264839       0.012
   0.10041442  0.02008288  0.04264839       0.012
   0.12049731  0.02008288  0.04264839       0.012
   0.04016577  0.04016577  0.04264839       0.006
   0.06024865  0.04016577  0.04264839       0.012
   0.08033154  0.04016577  0.04264839       0.012
   0.10041442  0.04016577  0.04264839       0.012
   0.12049731  0.04016577  0.04264839       0.012
   0.06024865  0.06024865  0.04264839       0.006
   0.08033154  0.06024865  0.04264839       0.012
   0.10041442  0.06024865  0.04264839       0.012
   0.12049731  0.06024865  0.04264839       0.012
   0.08033154  0.08033154  0.04264839       0.006
   0.10041442  0.08033154  0.04264839       0.012
   0.12049731  0.08033154  0.04264839       0.012
   0.10041442  0.10041442  0.04264839       0.006
   0.12049731  0.10041442  0.04264839       0.012
   0.12049731  0.12049731  0.04264839       0.006
 
 k-points in reciprocal lattice and weights: pymatgen with grid density = 8800 / numb
   0.00000000  0.00000000  0.00000000       0.001
   0.07692308  0.00000000  0.00000000       0.006
   0.15384615  0.00000000  0.00000000       0.006
   0.23076923  0.00000000  0.00000000       0.006
   0.30769231  0.00000000  0.00000000       0.006
   0.38461538  0.00000000  0.00000000       0.006
   0.46153846  0.00000000  0.00000000       0.006
   0.07692308  0.07692308  0.00000000       0.006
   0.15384615  0.07692308  0.00000000       0.012
   0.23076923  0.07692308  0.00000000       0.012
   0.30769231  0.07692308  0.00000000       0.012
   0.38461538  0.07692308  0.00000000       0.012
   0.46153846  0.07692308  0.00000000       0.012
   0.15384615  0.15384615  0.00000000       0.006
   0.23076923  0.15384615  0.00000000       0.012
   0.30769231  0.15384615  0.00000000       0.012
   0.38461538  0.15384615  0.00000000       0.012
   0.46153846  0.15384615  0.00000000       0.012
   0.23076923  0.23076923  0.00000000       0.006
   0.30769231  0.23076923  0.00000000       0.012
   0.38461538  0.23076923  0.00000000       0.012
   0.46153846  0.23076923  0.00000000       0.012
   0.30769231  0.30769231  0.00000000       0.006
   0.38461538  0.30769231  0.00000000       0.012
   0.46153846  0.30769231  0.00000000       0.012
   0.38461538  0.38461538  0.00000000       0.006
   0.46153846  0.38461538  0.00000000       0.012
   0.46153846  0.46153846  0.00000000       0.006
   0.00000000  0.00000000  0.25000000       0.003
   0.07692308  0.00000000  0.25000000       0.012
   0.15384615  0.00000000  0.25000000       0.012
   0.23076923  0.00000000  0.25000000       0.012
   0.30769231  0.00000000  0.25000000       0.012
   0.38461538  0.00000000  0.25000000       0.012
   0.46153846  0.00000000  0.25000000       0.012
   0.07692308  0.07692308  0.25000000       0.012
   0.15384615  0.07692308  0.25000000       0.024
   0.23076923  0.07692308  0.25000000       0.024
   0.30769231  0.07692308  0.25000000       0.024
   0.38461538  0.07692308  0.25000000       0.024
   0.46153846  0.07692308  0.25000000       0.024
   0.15384615  0.15384615  0.25000000       0.012
   0.23076923  0.15384615  0.25000000       0.024
   0.30769231  0.15384615  0.25000000       0.024
   0.38461538  0.15384615  0.25000000       0.024
   0.46153846  0.15384615  0.25000000       0.024
   0.23076923  0.23076923  0.25000000       0.012
   0.30769231  0.23076923  0.25000000       0.024
   0.38461538  0.23076923  0.25000000       0.024
   0.46153846  0.23076923  0.25000000       0.024
   0.30769231  0.30769231  0.25000000       0.012
   0.38461538  0.30769231  0.25000000       0.024
   0.46153846  0.30769231  0.25000000       0.024
   0.38461538  0.38461538  0.25000000       0.012
   0.46153846  0.38461538  0.25000000       0.024
   0.46153846  0.46153846  0.25000000       0.012
   0.00000000  0.00000000  0.50000000       0.001
   0.07692308  0.00000000  0.50000000       0.006
   0.15384615  0.00000000  0.50000000       0.006
   0.23076923  0.00000000  0.50000000       0.006
   0.30769231  0.00000000  0.50000000       0.006
   0.38461538  0.00000000  0.50000000       0.006
   0.46153846  0.00000000  0.50000000       0.006
   0.07692308  0.07692308  0.50000000       0.006
   0.15384615  0.07692308  0.50000000       0.012
   0.23076923  0.07692308  0.50000000       0.012
   0.30769231  0.07692308  0.50000000       0.012
   0.38461538  0.07692308  0.50000000       0.012
   0.46153846  0.07692308  0.50000000       0.012
   0.15384615  0.15384615  0.50000000       0.006
   0.23076923  0.15384615  0.50000000       0.012
   0.30769231  0.15384615  0.50000000       0.012
   0.38461538  0.15384615  0.50000000       0.012
   0.46153846  0.15384615  0.50000000       0.012
   0.23076923  0.23076923  0.50000000       0.006
   0.30769231  0.23076923  0.50000000       0.012
   0.38461538  0.23076923  0.50000000       0.012
   0.46153846  0.23076923  0.50000000       0.012
   0.30769231  0.30769231  0.50000000       0.006
   0.38461538  0.30769231  0.50000000       0.012
   0.46153846  0.30769231  0.50000000       0.012
   0.38461538  0.38461538  0.50000000       0.006
   0.46153846  0.38461538  0.50000000       0.012
   0.46153846  0.46153846  0.50000000       0.006
 
 position of ions in fractional coordinates (direct lattice) 
   0.00000000  0.50000000  0.16669987
   0.00000000  0.50000000  0.50021310
   0.00000000  0.50000000  0.83306718
   0.50000000  0.50000000  0.01267679
   0.50000000  0.50000000  0.32070464
   0.50000000  0.50000000  0.66664219
   0.50000000  0.00000000  0.16669987
   0.50000000  0.00000000  0.50021310
   0.50000000  0.00000000  0.83306718
   0.00000000  0.00000000  0.99602124
   0.00000000  0.00000000  0.33729303
   0.00000000  0.00000000  0.66670182
 
 position of ions in cartesian coordinates  (Angst):
   0.00000000  1.91514018  1.95435110
   0.00000000  1.91514018  5.86438374
   0.00000000  1.91514018  9.76668870
   1.91514018  1.91514018  0.14861973
   1.91514018  1.91514018  3.75986768
   1.91514018  1.91514018  7.81556031
   1.91514018  0.00000000  1.95435110
   1.91514018  0.00000000  5.86438374
   1.91514018  0.00000000  9.76668870
   0.00000000  0.00000000 11.67712479
   0.00000000  0.00000000  3.95434620
   0.00000000  0.00000000  7.81625939
 


--------------------------------------------------------------------------------------------------------


 k-point     1 :   0.0000 0.0000 0.0000  plane waves:    4611
 k-point     2 :   0.0769 0.0000 0.0000  plane waves:    4585
 k-point     3 :   0.1538 0.0000 0.0000  plane waves:    4600
 k-point     4 :   0.2308 0.0000 0.0000  plane waves:    4634
 k-point     5 :   0.3077 0.0000 0.0000  plane waves:    4642
 k-point     6 :   0.3846 0.0000 0.0000  plane waves:    4632
 k-point     7 :   0.4615 0.0000 0.0000  plane waves:    4630
 k-point     8 :   0.0769 0.0769 0.0000  plane waves:    4588
 k-point     9 :   0.1538 0.0769 0.0000  plane waves:    4599
 k-point    10 :   0.2308 0.0769 0.0000  plane waves:    4620
 k-point    11 :   0.3077 0.0769 0.0000  plane waves:    4645
 k-point    12 :   0.3846 0.0769 0.0000  plane waves:    4638
 k-point    13 :   0.4615 0.0769 0.0000  plane waves:    4641
 k-point    14 :   0.1538 0.1538 0.0000  plane waves:    4602
 k-point    15 :   0.2308 0.1538 0.0000  plane waves:    4619
 k-point    16 :   0.3077 0.1538 0.0000  plane waves:    4643
 k-point    17 :   0.3846 0.1538 0.0000  plane waves:    4641
 k-point    18 :   0.4615 0.1538 0.0000  plane waves:    4625
 k-point    19 :   0.2308 0.2308 0.0000  plane waves:    4640
 k-point    20 :   0.3077 0.2308 0.0000  plane waves:    4635
 k-point    21 :   0.3846 0.2308 0.0000  plane waves:    4638
 k-point    22 :   0.4615 0.2308 0.0000  plane waves:    4632
 k-point    23 :   0.3077 0.3077 0.0000  plane waves:    4634
 k-point    24 :   0.3846 0.3077 0.0000  plane waves:    4652
 k-point    25 :   0.4615 0.3077 0.0000  plane waves:    4632
 k-point    26 :   0.3846 0.3846 0.0000  plane waves:    4636
 k-point    27 :   0.4615 0.3846 0.0000  plane waves:    4646
 k-point    28 :   0.4615 0.4615 0.0000  plane waves:    4642
 k-point    29 :   0.0000 0.0000 0.2500  plane waves:    4612
 k-point    30 :   0.0769 0.0000 0.2500  plane waves:    4594
 k-point    31 :   0.1538 0.0000 0.2500  plane waves:    4604
 k-point    32 :   0.2308 0.0000 0.2500  plane waves:    4633
 k-point    33 :   0.3077 0.0000 0.2500  plane waves:    4635
 k-point    34 :   0.3846 0.0000 0.2500  plane waves:    4646
 k-point    35 :   0.4615 0.0000 0.2500  plane waves:    4637
 k-point    36 :   0.0769 0.0769 0.2500  plane waves:    4599
 k-point    37 :   0.1538 0.0769 0.2500  plane waves:    4607
 k-point    38 :   0.2308 0.0769 0.2500  plane waves:    4627
 k-point    39 :   0.3077 0.0769 0.2500  plane waves:    4630
 k-point    40 :   0.3846 0.0769 0.2500  plane waves:    4644
 k-point    41 :   0.4615 0.0769 0.2500  plane waves:    4642
 k-point    42 :   0.1538 0.1538 0.2500  plane waves:    4618
 k-point    43 :   0.2308 0.1538 0.2500  plane waves:    4629
 k-point    44 :   0.3077 0.1538 0.2500  plane waves:    4638
 k-point    45 :   0.3846 0.1538 0.2500  plane waves:    4631
 k-point    46 :   0.4615 0.1538 0.2500  plane waves:    4640
 k-point    47 :   0.2308 0.2308 0.2500  plane waves:    4625
 k-point    48 :   0.3077 0.2308 0.2500  plane waves:    4636
 k-point    49 :   0.3846 0.2308 0.2500  plane waves:    4639
 k-point    50 :   0.4615 0.2308 0.2500  plane waves:    4635
 k-point    51 :   0.3077 0.3077 0.2500  plane waves:    4628
 k-point    52 :   0.3846 0.3077 0.2500  plane waves:    4632
 k-point    53 :   0.4615 0.3077 0.2500  plane waves:    4635
 k-point    54 :   0.3846 0.3846 0.2500  plane waves:    4632
 k-point    55 :   0.4615 0.3846 0.2500  plane waves:    4645
 k-point    56 :   0.4615 0.4615 0.2500  plane waves:    4652
 k-point    57 :   0.0000 0.0000 0.5000  plane waves:    4652
 k-point    58 :   0.0769 0.0000 0.5000  plane waves:    4606
 k-point    59 :   0.1538 0.0000 0.5000  plane waves:    4620
 k-point    60 :   0.2308 0.0000 0.5000  plane waves:    4628
 k-point    61 :   0.3077 0.0000 0.5000  plane waves:    4634
 k-point    62 :   0.3846 0.0000 0.5000  plane waves:    4640
 k-point    63 :   0.4615 0.0000 0.5000  plane waves:    4644
 k-point    64 :   0.0769 0.0769 0.5000  plane waves:    4614
 k-point    65 :   0.1538 0.0769 0.5000  plane waves:    4612
 k-point    66 :   0.2308 0.0769 0.5000  plane waves:    4632
 k-point    67 :   0.3077 0.0769 0.5000  plane waves:    4630
 k-point    68 :   0.3846 0.0769 0.5000  plane waves:    4648
 k-point    69 :   0.4615 0.0769 0.5000  plane waves:    4638
 k-point    70 :   0.1538 0.1538 0.5000  plane waves:    4622
 k-point    71 :   0.2308 0.1538 0.5000  plane waves:    4630
 k-point    72 :   0.3077 0.1538 0.5000  plane waves:    4620
 k-point    73 :   0.3846 0.1538 0.5000  plane waves:    4638
 k-point    74 :   0.4615 0.1538 0.5000  plane waves:    4644
 k-point    75 :   0.2308 0.2308 0.5000  plane waves:    4622
 k-point    76 :   0.3077 0.2308 0.5000  plane waves:    4632
 k-point    77 :   0.3846 0.2308 0.5000  plane waves:    4626
 k-point    78 :   0.4615 0.2308 0.5000  plane waves:    4640
 k-point    79 :   0.3077 0.3077 0.5000  plane waves:    4626
 k-point    80 :   0.3846 0.3077 0.5000  plane waves:    4628
 k-point    81 :   0.4615 0.3077 0.5000  plane waves:    4648
 k-point    82 :   0.3846 0.3846 0.5000  plane waves:    4638
 k-point    83 :   0.4615 0.3846 0.5000  plane waves:    4650
 k-point    84 :   0.4615 0.4615 0.5000  plane waves:    4634

 maximum and minimum number of plane-waves per node :      4652     4585

 maximum number of plane-waves:      4652
 maximum index in each direction: 
   IXMAX=    7   IYMAX=    7   IZMAX=   21
   IXMIN=   -7   IYMIN=   -7   IZMIN=  -22


 serial   3D FFT for wavefunctions
 parallel 3D FFT for charge:
    minimum data exchange during FFTs selected (reduces bandwidth)


 total amount of memory used by VASP MPI-rank0   270990. kBytes
=======================================================================

   base      :      30000. kBytes
   nonl-proj :     113922. kBytes
   fftplans  :        955. kBytes
   grid      :       7297. kBytes
   one-center:        373. kBytes
   wavefun   :     118443. kBytes
 
     INWAV:  cpu time      0.0000: real time      0.0000
 Broyden mixing: mesh for mixing (old mesh)
   NGX = 15   NGY = 15   NGZ = 43
  (NGX  = 56   NGY  = 56   NGZ  =180)
  gives a total of   9675 points

 initial charge density was supplied:
 charge density of overlapping atoms calculated
 number of electron     156.0000000 magnetization       3.0440000
 charge density for first step will be calculated from the start-wavefunctions


--------------------------------------------------------------------------------------------------------


 Maximum index for augmentation-charges         1027 (set IRDMAX)


--------------------------------------------------------------------------------------------------------


 First call to EWALD:  gamma=   0.319
 Maximum number of real-space cells 4x 4x 2
 Maximum number of reciprocal cells 2x 2x 5

    FEWALD:  cpu time      0.0016: real time      0.0017


--------------------------------------- Ionic step        1  -------------------------------------------




--------------------------------------- Iteration      1(   1)  ---------------------------------------


    POTLOK:  cpu time      0.0397: real time      0.0405
    SETDIJ:  cpu time      0.0148: real time      0.0150
    TRIAL :  cpu time      4.8082: real time      4.8467
    CORREC:  cpu time      0.0028: real time      0.0029
    --------------------------------------------
      LOOP:  cpu time      4.9572: real time      5.0000

 eigenvalue-minimisations  : 32256
 total energy-change (2. order) : 0.1729470E+04  (-0.9405128E+04)
 number of electron     156.0000000 magnetization       3.0440000
 augmentation part      156.0000000 magnetization       3.0440000

 Free energy of the ion-electron system (eV)
  ---------------------------------------------------
  alpha Z        PSCENC =       989.47749747
  Ewald energy   TEWEN  =    -17489.27839690
  -Hartree energ DENC   =     -6314.59822498
  -exchange      EXHF   =         0.00000000
  -V(xc)+E(xc)   XCENC  =       653.71312214
  PAW double counting   =     20093.35259008   -20817.21903262
  entropy T*S    EENTRO =        -0.00133276
  eigenvalues    EBANDS =       309.92103302
  atomic energy  EATOM  =     24304.10294433
  ---------------------------------------------------
  free energy    TOTEN  =      1729.47019977 eV

  energy without entropy =     1729.47153253  energy(sigma->0) =     1729.47064402


--------------------------------------------------------------------------------------------------------




--------------------------------------- Iteration      1(   2)  ---------------------------------------


    TRIAL :  cpu time      4.7346: real time      4.7733
    CORREC:  cpu time      0.0025: real time      0.0025
    --------------------------------------------
      LOOP:  cpu time      4.7457: real time      4.7974

 eigenvalue-minimisations  : 32288
 total energy-change (2. order) :-0.1715935E+04  (-0.1687763E+04)
 number of electron     156.0000000 magnetization       3.0440000
 augmentation part      156.0000000 magnetization       3.0440000

 Free energy of the ion-electron system (eV)
  ---------------------------------------------------
  alpha Z        PSCENC =       989.47749747
  Ewald energy   TEWEN  =    -17489.27839690
  -Hartree energ DENC   =     -6314.59822498
  -exchange      EXHF   =         0.00000000
  -V(xc)+E(xc)   XCENC  =       653.71312214
  PAW double counting   =     20093.35259008   -20817.21903262
  entropy T*S    EENTRO =         0.00242963
  eigenvalues    EBANDS =     -1406.01754349
  atomic energy  EATOM  =     24304.10294433
  ---------------------------------------------------
  free energy    TOTEN  =        13.53538565 eV

  energy without entropy =       13.53295602  energy(sigma->0) =       13.53457578


--------------------------------------------------------------------------------------------------------




--------------------------------------- Iteration      1(   3)  ---------------------------------------


    TRIAL :  cpu time      6.5088: real time      6.5563
    CORREC:  cpu time      0.0024: real time      0.0024
    --------------------------------------------
      LOOP:  cpu time      6.5195: real time      6.5810

 eigenvalue-minimisations  : 43232
 total energy-change (2. order) :-0.1149605E+03  (-0.1136474E+03)
 number of electron     156.0000000 magnetization       3.0440000
 augmentation part      156.0000000 magnetization       3.0440000

 Free energy of the ion-electron system (eV)
  ---------------------------------------------------
  alpha Z        PSCENC =       989.47749747
  Ewald energy   TEWEN  =    -17489.27839690
  -Hartree energ DENC   =     -6314.59822498
  -exchange      EXHF   =         0.00000000
  -V(xc)+E(xc)   XCENC  =       653.71312214
  PAW double counting   =     20093.35259008   -20817.21903262
  entropy T*S    EENTRO =         0.01555892
  eigenvalues    EBANDS =     -1520.99112574
  atomic energy  EATOM  =     24304.10294433
  ---------------------------------------------------
  free energy    TOTEN  =      -101.42506731 eV

  energy without entropy =     -101.44062623  energy(sigma->0) =     -101.43025361


--------------------------------------------------------------------------------------------------------




--------------------------------------- Iteration      1(   4)  ---------------------------------------


    TRIAL :  cpu time      4.8282: real time      4.8650
    CORREC:  cpu time      0.0024: real time      0.0025
    --------------------------------------------
      LOOP:  cpu time      4.8397: real time      4.8898

 eigenvalue-minimisations  : 32544
 total energy-change (2. order) :-0.2580988E+01  (-0.2576684E+01)
 number of electron     156.0000000 magnetization       3.0440000
 augmentation part      156.0000000 magnetization       3.0440000

 Free energy of the ion-electron system (eV)
  ---------------------------------------------------
  alpha Z        PSCENC =       989.47749747
  Ewald energy   TEWEN  =    -17489.27839690
  -Hartree energ DENC   =     -6314.59822498
  -exchange      EXHF   =         0.00000000
  -V(xc)+E(xc)   XCENC  =       653.71312214
  PAW double counting   =     20093.35259008   -20817.21903262
  entropy T*S    EENTRO =         0.01577458
  eigenvalues    EBANDS =     -1523.57232972
  atomic energy  EATOM  =     24304.10294433
  ---------------------------------------------------
  free energy    TOTEN  =      -104.00605562 eV

  energy without entropy =     -104.02183020  energy(sigma->0) =     -104.01131382


--------------------------------------------------------------------------------------------------------




--------------------------------------- Iteration      1(   5)  ---------------------------------------


    TRIAL :  cpu time      6.1422: real time      6.1830
    CORREC:  cpu time      0.0025: real time      0.0025
    CHARGE:  cpu time      0.1641: real time      0.1656
    --------------------------------------------
      LOOP:  cpu time      6.3165: real time      6.3731

 eigenvalue-minimisations  : 41728
 total energy-change (2. order) :-0.5949576E-01  (-0.5949426E-01)
 number of electron     155.9999850 magnetization       3.0720822
 augmentation part       79.2940889 magnetization       2.1047234

 Free energy of the ion-electron system (eV)
  ---------------------------------------------------
  alpha Z        PSCENC =       989.47749747
  Ewald energy   TEWEN  =    -17489.27839690
  -Hartree energ DENC   =     -6314.59822498
  -exchange      EXHF   =         0.00000000
  -V(xc)+E(xc)   XCENC  =       653.71312214
  PAW double counting   =     20093.35259008   -20817.21903262
  entropy T*S    EENTRO =         0.01577358
  eigenvalues    EBANDS =     -1523.63182448
  atomic energy  EATOM  =     24304.10294433
  ---------------------------------------------------
  free energy    TOTEN  =      -104.06555138 eV

  energy without entropy =     -104.08132496  energy(sigma->0) =     -104.07080924


--------------------------------------------------------------------------------------------------------




--------------------------------------- Iteration      1(   6)  ---------------------------------------


    POTLOK:  cpu time      0.0233: real time      0.0235
    SETDIJ:  cpu time      0.0077: real time      0.0077
    TRIAL :  cpu time      2.1080: real time      2.1287
    CORREC:  cpu time      0.9096: real time      0.9186
    CHARGE:  cpu time      0.1589: real time      0.1599
    --------------------------------------------
      LOOP:  cpu time      3.2170: real time      3.2609

 eigenvalue-minimisations  :     0
 total energy-change (2. order) : 0.5869127E+02  (-0.2295898E+02)
 number of electron     155.9999847 magnetization       2.5935407
 augmentation part       81.3267317 magnetization       1.9837942

 Free energy of the ion-electron system (eV)
  ---------------------------------------------------
  alpha Z        PSCENC =       989.47749747
  Ewald energy   TEWEN  =    -17489.27839690
  -Hartree energ DENC   =     -5137.16942309
  -exchange      EXHF   =         0.00000000
  -V(xc)+E(xc)   XCENC  =       606.03627850
  PAW double counting   =     20260.59976870   -20918.57941230
  entropy T*S    EENTRO =         0.00166106
  eigenvalues    EBANDS =     -2660.57931308
  atomic energy  EATOM  =     24304.10294433
  ---------------------------------------------------
  free energy    TOTEN  =       -45.37428281 eV

  energy without entropy =      -45.37594386  energy(sigma->0) =      -45.37483649


--------------------------------------------------------------------------------------------------------




--------------------------------------- Iteration      1(   7)  ---------------------------------------


    POTLOK:  cpu time      0.0236: real time      0.0238
    SETDIJ:  cpu time      0.0079: real time      0.0080
    TRIAL :  cpu time      2.0878: real time      2.1086
    CORREC:  cpu time      0.8025: real time      0.8112
    CHARGE:  cpu time      0.1591: real time      0.1599
    --------------------------------------------
      LOOP:  cpu time      3.1029: real time      3.1337

 eigenvalue-minimisations  :     0
 total energy-change (2. order) :-0.2595591E+02  (-0.1108161E+02)
 number of electron     155.9999843 magnetization       2.9095696
 augmentation part       82.9402028 magnetization       2.1444966

 Free energy of the ion-electron system (eV)
  ---------------------------------------------------
  alpha Z        PSCENC =       989.47749747
  Ewald energy   TEWEN  =    -17489.27839690
  -Hartree energ DENC   =     -5402.18776121
  -exchange      EXHF   =         0.00000000
  -V(xc)+E(xc)   XCENC  =       617.72705321
  PAW double counting   =     20630.07764591   -21337.81831846
  entropy T*S    EENTRO =         0.00234436
  eigenvalues    EBANDS =     -2383.43252214
  atomic energy  EATOM  =     24304.10294433
  ---------------------------------------------------
  free energy    TOTEN  =       -71.33019675 eV

  energy without entropy =      -71.33254111  energy(sigma->0) =      -71.33097820


--------------------------------------------------------------------------------------------------------




--------------------------------------- Iteration      1(   8)  ---------------------------------------


    POTLOK:  cpu time      0.0235: real time      0.0237
    SETDIJ:  cpu time      0.0078: real time      0.0078
    TRIAL :  cpu time      2.1479: real time      2.1680
    CORREC:  cpu time      0.8038: real time      0.8127
    CHARGE:  cpu time      0.1576: real time      0.1586
    --------------------------------------------
      LOOP:  cpu time      3.1493: real time      3.1937

 eigenvalue-minimisations  :     0
 total energy-change (2. order) :-0.1329360E+02  (-0.3855978E+01)
 number of electron     155.9999841 magnetization       3.0775256
 augmentation part       84.3187538 magnetization       2.2520807

 Free energy of the ion-electron system (eV)
  ---------------------------------------------------
  alpha Z        PSCENC =       989.47749747
  Ewald energy   TEWEN  =    -17489.27839690
  -Hartree energ DENC   =     -5640.06105635
  -exchange      EXHF   =         0.00000000
  -V(xc)+E(xc)   XCENC  =       627.32171254
  PAW double counting   =     21023.10117544   -21770.65422089
  entropy T*S    EENTRO =         0.00610221
  eigenvalues    EBANDS =     -2128.63579850
  atomic energy  EATOM  =     24304.10294433
  ---------------------------------------------------
  free energy    TOTEN  =       -84.62379852 eV

  energy without entropy =      -84.62990073  energy(sigma->0) =      -84.62583259


--------------------------------------------------------------------------------------------------------




--------------------------------------- Iteration      1(   9)  ---------------------------------------


    POTLOK:  cpu time      0.0237: real time      0.0239
    SETDIJ:  cpu time      0.0078: real time      0.0078
    TRIAL :  cpu time      2.4162: real time      2.4460
    CORREC:  cpu time      2.3011: real time      2.3167
    CHARGE:  cpu time      3.0501: real time      3.0622
    --------------------------------------------
      LOOP:  cpu time      7.8218: real time      7.8798

 eigenvalue-minimisations  :     0
 total energy-change (2. order) :-0.3668994E+01  (-0.6907536E+00)
 number of electron     155.9999841 magnetization       2.9722897
 augmentation part       84.6571974 magnetization       2.2104797

 Free energy of the ion-electron system (eV)
  ---------------------------------------------------
  alpha Z        PSCENC =       989.47749747
  Ewald energy   TEWEN  =    -17489.27839690
  -Hartree energ DENC   =     -5853.01295872
  -exchange      EXHF   =         0.00000000
  -V(xc)+E(xc)   XCENC  =       635.81831744
  PAW double counting   =     21445.47655095   -22221.83697492
  entropy T*S    EENTRO =         0.00655465
  eigenvalues    EBANDS =     -1899.04587429
  atomic energy  EATOM  =     24304.10294433
  ---------------------------------------------------
  free energy    TOTEN  =       -88.29279245 eV

  energy without entropy =      -88.29934710  energy(sigma->0) =      -88.29497733


--------------------------------------------------------------------------------------------------------




--------------------------------------- Iteration      1(  10)  ---------------------------------------


    POTLOK:  cpu time      0.0234: real time      0.0236
    SETDIJ:  cpu time      0.0603: real time      0.0606
    TRIAL :  cpu time      2.1101: real time      2.1316
    CORREC:  cpu time      0.8058: real time      0.8145
    CHARGE:  cpu time      0.1584: real time      0.1593
    --------------------------------------------
      LOOP:  cpu time      3.1659: real time      3.2124

 eigenvalue-minimisations  :     0
 total energy-change (2. order) :-0.9997826E+00  (-0.5279328E+00)
 number of electron     155.9999841 magnetization       2.8211701
 augmentation part       84.8215669 magnetization       2.1418278

 Free energy of the ion-electron system (eV)
  ---------------------------------------------------
  alpha Z        PSCENC =       989.47749747
  Ewald energy   TEWEN  =    -17489.27839690
  -Hartree energ DENC   =     -5900.88636143
  -exchange      EXHF   =         0.00000000
  -V(xc)+E(xc)   XCENC  =       637.89957272
  PAW double counting   =     21561.01259183   -22343.26080309
  entropy T*S    EENTRO =         0.00636566
  eigenvalues    EBANDS =     -1848.36617462
  atomic energy  EATOM  =     24304.10294433
  ---------------------------------------------------
  free energy    TOTEN  =       -89.29257505 eV

  energy without entropy =      -89.29894071  energy(sigma->0) =      -89.29469694


--------------------------------------------------------------------------------------------------------




--------------------------------------- Iteration      1(  11)  ---------------------------------------


    POTLOK:  cpu time      0.0230: real time      0.0232
    SETDIJ:  cpu time      0.0072: real time      0.0073
    TRIAL :  cpu time      2.1006: real time      2.1222
    CORREC:  cpu time      0.9305: real time      0.9397
    CHARGE:  cpu time      0.1567: real time      0.1576
    --------------------------------------------
      LOOP:  cpu time      3.2268: real time      3.2730

 eigenvalue-minimisations  :     0
 total energy-change (2. order) :-0.6092502E+00  (-0.6674477E+00)
 number of electron     155.9999841 magnetization       2.7161251
 augmentation part       84.9679835 magnetization       2.1045964

 Free energy of the ion-electron system (eV)
  ---------------------------------------------------
  alpha Z        PSCENC =       989.47749747
  Ewald energy   TEWEN  =    -17489.27839690
  -Hartree energ DENC   =     -5920.98312772
  -exchange      EXHF   =         0.00000000
  -V(xc)+E(xc)   XCENC  =       638.90713399
  PAW double counting   =     21619.35143763   -22402.83710554
  entropy T*S    EENTRO =         0.00619948
  eigenvalues    EBANDS =     -1828.64857411
  atomic energy  EATOM  =     24304.10294433
  ---------------------------------------------------
  free energy    TOTEN  =       -89.90182522 eV

  energy without entropy =      -89.90802470  energy(sigma->0) =      -89.90389171


--------------------------------------------------------------------------------------------------------




--------------------------------------- Iteration      1(  12)  ---------------------------------------


    POTLOK:  cpu time      0.0230: real time      0.0232
    SETDIJ:  cpu time      0.0076: real time      0.0076
    TRIAL :  cpu time      2.0980: real time      2.1207
    CORREC:  cpu time      0.8075: real time      0.8174
    CHARGE:  cpu time      0.1577: real time      0.1586
    --------------------------------------------
      LOOP:  cpu time      3.1018: real time      3.1504

 eigenvalue-minimisations  :     0
 total energy-change (2. order) :-0.6723871E+00  (-0.2961066E+00)
 number of electron     155.9999842 magnetization       2.7633345
 augmentation part       85.0193609 magnetization       2.1386697

 Free energy of the ion-electron system (eV)
  ---------------------------------------------------
  alpha Z        PSCENC =       989.47749747
  Ewald energy   TEWEN  =    -17489.27839690
  -Hartree energ DENC   =     -5934.03166225
  -exchange      EXHF   =         0.00000000
  -V(xc)+E(xc)   XCENC  =       639.79927068
  PAW double counting   =     21674.26148040   -22451.90496669
  entropy T*S    EENTRO =         0.00643135
  eigenvalues    EBANDS =     -1823.00657885
  atomic energy  EATOM  =     24304.10294433
  ---------------------------------------------------
  free energy    TOTEN  =       -90.57421234 eV

  energy without entropy =      -90.58064369  energy(sigma->0) =      -90.57635612


--------------------------------------------------------------------------------------------------------




--------------------------------------- Iteration      1(  13)  ---------------------------------------


    POTLOK:  cpu time      0.0233: real time      0.0235
    SETDIJ:  cpu time      0.0074: real time      0.0074
    TRIAL :  cpu time      2.0859: real time      2.1098
    CORREC:  cpu time      0.8094: real time      0.8184
    CHARGE:  cpu time      0.1583: real time      0.1592
    --------------------------------------------
      LOOP:  cpu time      3.0941: real time      3.1406

 eigenvalue-minimisations  :     0
 total energy-change (2. order) :-0.4371628E+00  (-0.4370837E+00)
 number of electron     155.9999841 magnetization       2.9552284
 augmentation part       84.9896232 magnetization       2.2382441

 Free energy of the ion-electron system (eV)
  ---------------------------------------------------
  alpha Z        PSCENC =       989.47749747
  Ewald energy   TEWEN  =    -17489.27839690
  -Hartree energ DENC   =     -5939.23801106
  -exchange      EXHF   =         0.00000000
  -V(xc)+E(xc)   XCENC  =       640.14762334
  PAW double counting   =     21699.06021603   -22472.72857938
  entropy T*S    EENTRO =         0.00636935
  eigenvalues    EBANDS =     -1822.56110034
  atomic energy  EATOM  =     24304.10294433
  ---------------------------------------------------
  free energy    TOTEN  =       -91.01137517 eV

  energy without entropy =      -91.01774452  energy(sigma->0) =      -91.01349829


--------------------------------------------------------------------------------------------------------




--------------------------------------- Iteration      1(  14)  ---------------------------------------


    POTLOK:  cpu time      0.0234: real time      0.0236
    SETDIJ:  cpu time      0.0070: real time      0.0070
    TRIAL :  cpu time      2.1517: real time      2.1737
    CORREC:  cpu time      0.9129: real time      0.9231
    CHARGE:  cpu time      0.1583: real time      0.1593
    --------------------------------------------
      LOOP:  cpu time      3.2613: real time      3.3102

 eigenvalue-minimisations  :     0
 total energy-change (2. order) :-0.3806106E+00  (-0.2786572E+00)
 number of electron     155.9999842 magnetization       2.8317540
 augmentation part       84.8578379 magnetization       2.1791046

 Free energy of the ion-electron system (eV)
  ---------------------------------------------------
  alpha Z        PSCENC =       989.47749747
  Ewald energy   TEWEN  =    -17489.27839690
  -Hartree energ DENC   =     -5938.78646890
  -exchange      EXHF   =         0.00000000
  -V(xc)+E(xc)   XCENC  =       640.00753629
  PAW double counting   =     21686.70212260   -22459.10692525
  entropy T*S    EENTRO =         0.00580332
  eigenvalues    EBANDS =     -1824.51666471
  atomic energy  EATOM  =     24304.10294433
  ---------------------------------------------------
  free energy    TOTEN  =       -91.39198573 eV

  energy without entropy =      -91.39778905  energy(sigma->0) =      -91.39392017


--------------------------------------------------------------------------------------------------------




--------------------------------------- Iteration      1(  15)  ---------------------------------------


    POTLOK:  cpu time      0.0234: real time      0.0236
    SETDIJ:  cpu time      0.0078: real time      0.0078
    TRIAL :  cpu time      2.1040: real time      2.1274
    CORREC:  cpu time      0.8042: real time      0.8133
    CHARGE:  cpu time      0.1593: real time      0.1603
    --------------------------------------------
      LOOP:  cpu time      3.1065: real time      3.1546

 eigenvalue-minimisations  :     0
 total energy-change (2. order) :-0.2768483E+00  (-0.3018910E+00)
 number of electron     155.9999843 magnetization       2.9834493
 augmentation part       84.7532068 magnetization       2.2665255

 Free energy of the ion-electron system (eV)
  ---------------------------------------------------
  alpha Z        PSCENC =       989.47749747
  Ewald energy   TEWEN  =    -17489.27839690
  -Hartree energ DENC   =     -5922.19657682
  -exchange      EXHF   =         0.00000000
  -V(xc)+E(xc)   XCENC  =       639.38957659
  PAW double counting   =     21632.19982291   -22398.15423500
  entropy T*S    EENTRO =         0.00572121
  eigenvalues    EBANDS =     -1847.21526993
  atomic energy  EATOM  =     24304.10294433
  ---------------------------------------------------
  free energy    TOTEN  =       -91.66883404 eV

  energy without entropy =      -91.67455525  energy(sigma->0) =      -91.67074111


--------------------------------------------------------------------------------------------------------




--------------------------------------- Iteration      1(  16)  ---------------------------------------


    POTLOK:  cpu time      0.0230: real time      0.0233
    SETDIJ:  cpu time      0.0077: real time      0.0077
    TRIAL :  cpu time      2.1228: real time      2.1447
    CORREC:  cpu time      0.8002: real time      0.8101
    CHARGE:  cpu time      0.1586: real time      0.1595
    --------------------------------------------
      LOOP:  cpu time      3.1213: real time      3.1680

 eigenvalue-minimisations  :     0
 total energy-change (2. order) :-0.2852354E+00  (-0.2145372E+00)
 number of electron     155.9999843 magnetization       2.8957288
 augmentation part       84.7731193 magnetization       2.2343276

 Free energy of the ion-electron system (eV)
  ---------------------------------------------------
  alpha Z        PSCENC =       989.47749747
  Ewald energy   TEWEN  =    -17489.27839690
  -Hartree energ DENC   =     -5914.80843473
  -exchange      EXHF   =         0.00000000
  -V(xc)+E(xc)   XCENC  =       639.00205612
  PAW double counting   =     21590.35285880   -22349.85275237
  entropy T*S    EENTRO =         0.00504049
  eigenvalues    EBANDS =     -1860.95556336
  atomic energy  EATOM  =     24304.10294433
  ---------------------------------------------------
  free energy    TOTEN  =       -91.95406944 eV

  energy without entropy =      -91.95910993  energy(sigma->0) =      -91.95574960


--------------------------------------------------------------------------------------------------------




--------------------------------------- Iteration      1(  17)  ---------------------------------------


    POTLOK:  cpu time      0.0233: real time      0.0236
    SETDIJ:  cpu time      0.0076: real time      0.0076
    TRIAL :  cpu time      2.1596: real time      2.1836
    CORREC:  cpu time      0.8075: real time      0.8165
    CHARGE:  cpu time      0.2814: real time      0.2835
    --------------------------------------------
      LOOP:  cpu time      3.2875: real time      3.3376

 eigenvalue-minimisations  :     0
 total energy-change (2. order) :-0.2090370E+00  (-0.1136858E+00)
 number of electron     155.9999843 magnetization       2.9942836
 augmentation part       84.8785323 magnetization       2.2963962

 Free energy of the ion-electron system (eV)
  ---------------------------------------------------
  alpha Z        PSCENC =       989.47749747
[...]
     29       3.3226      1.00000
     30       3.3519      1.00000
     31       3.4807      1.00000
     32       3.5090      1.00000
     33       3.7486      1.00000
     34       3.7832      1.00000
     35       4.0812      1.00000
     36       4.1279      1.00000
     37       4.2646      1.00000
     38       4.3037      1.00000
     39       4.3182      1.00000
     40       4.8593      1.00000
     41       5.1752      1.00000
     42       5.3198      1.00000
     43       5.6061      1.00000
     44       5.6069      1.00000
     45       5.6325      1.00000
     46       5.6334      1.00000
     47       5.6786      1.00000
     48       5.7628      1.00000
     49       5.7728      1.00000
     50       5.8472      1.00000
     51       5.9223      1.00000
     52       5.9227      1.00000
     53       6.0702      1.00000
     54       6.1139      1.00000
     55       6.1158      1.00000
     56       6.1602      1.00000
     57       6.2511      1.00000
     58       6.4078      1.00000
     59       6.4927      1.00000
     60       6.6599      1.00000
     61       6.7525      1.00000
     62       7.1205      1.00000
     63       7.2280      1.00000
     64       7.2790      1.00000
     65       7.4117      1.00000
     66       7.4688      1.00000
     67       7.5440      1.00000
     68       7.6092      1.00000
     69       7.8705      1.00000
     70       7.9114      1.00001
     71       7.9119      1.00001
     72       7.9551      1.00003
     73       7.9946      1.00010
     74       7.9983      1.00011
     75       8.2165      1.01210
     76       8.3001      1.02965
     77       8.3775      1.03046
     78       8.4497      0.96007
     79       8.5508      0.66401
     80       8.7138      0.07111
     81       8.7248      0.04926
     82       8.8394     -0.03537
     83       8.9860     -0.00856
     84       9.3156     -0.00000
     85       9.3341     -0.00000
     86       9.3716     -0.00000
     87       9.5471     -0.00000
     88       9.5703     -0.00000
     89       9.7799     -0.00000
     90       9.8867     -0.00000
     91       9.9854     -0.00000
     92      10.0833     -0.00000
     93      10.1323     -0.00000
     94      10.4991     -0.00000
     95      10.5678     -0.00000
     96      10.6673     -0.00000


--------------------------------------------------------------------------------------------------------


 soft charge-density along one line, spin component           1
         0         1         2         3         4         5         6         7         8         9
 total charge-density along one line
 
 soft charge-density along one line, spin component           2
         0         1         2         3         4         5         6         7         8         9
 total charge-density along one line
 
 pseudopotential strength for first ion, spin component:           1
-43.650  -0.000  -0.000   7.047   0.000   0.000  -0.000  -0.000
 -0.000 -43.644  -0.000   0.000   7.044   0.000  -0.000   0.000
 -0.000  -0.000 -43.572   0.000   0.000   7.014   0.000  -0.000
  7.047   0.000   0.000   5.820   0.000   0.000   0.000   0.000
  0.000   7.044   0.000   0.000   5.821   0.000   0.000  -0.000
  0.000   0.000   7.014   0.000   0.000   5.829  -0.000   0.000
 -0.000  -0.000   0.000   0.000   0.000  -0.000  -1.007  -0.000
 -0.000   0.000  -0.000   0.000  -0.000   0.000  -0.000  -1.000
 -0.000  -0.000   0.000   0.000   0.000  -0.000   0.000  -0.000
 -0.000  -0.000  -0.000   0.000   0.000   0.000  -0.000  -0.000
 -0.000   0.000  -0.000   0.000   0.000   0.000   0.000   0.000
 -0.000  -0.000   0.000   0.000   0.000  -0.000  -1.539  -0.000
 -0.000   0.000  -0.000   0.000  -0.000   0.000  -0.000  -1.531
 -0.000  -0.000   0.000   0.000   0.000   0.000   0.000  -0.000
 -0.000  -0.000  -0.000   0.000   0.000   0.000  -0.000  -0.000
 -0.000   0.000  -0.000   0.000   0.000   0.000   0.000   0.000
 -0.000   0.000   0.000  -0.000   0.000   0.000   0.000   0.000
 -0.000   0.000   0.000  -0.000   0.000  -0.000   0.000   0.000
 pseudopotential strength for first ion, spin component:           2
-46.092  -0.000   0.000   8.071   0.000  -0.000   0.000  -0.000
 -0.000 -46.040  -0.000   0.000   8.050   0.000  -0.000   0.000
  0.000  -0.000 -45.863  -0.000   0.000   7.979   0.000  -0.000
  8.071   0.000  -0.000   5.529   0.000  -0.000  -0.000   0.000
  0.000   8.050   0.000   0.000   5.533   0.000   0.000  -0.000
 -0.000   0.000   7.979  -0.000   0.000   5.549  -0.000   0.000
  0.000  -0.000   0.000  -0.000   0.000  -0.000  -2.914  -0.000
 -0.000   0.000  -0.000   0.000  -0.000   0.000  -0.000  -3.086
 -0.000  -0.000  -0.000   0.000   0.000   0.000  -0.000  -0.000
 -0.000  -0.000  -0.000   0.000  -0.000   0.000  -0.000   0.000
 -0.000   0.000  -0.000   0.000  -0.000   0.000   0.000   0.000
  0.000  -0.000   0.000  -0.000   0.000  -0.000  -3.415  -0.000
 -0.000   0.000  -0.000   0.000  -0.000   0.000  -0.000  -3.584
 -0.000  -0.000  -0.000   0.000   0.000   0.000  -0.000  -0.000
 -0.000   0.000  -0.000   0.000  -0.000   0.000  -0.000   0.000
 -0.000   0.000   0.000   0.000  -0.000  -0.000   0.000   0.000
 -0.000   0.000   0.000  -0.000  -0.000   0.000  -0.000   0.000
 -0.000   0.000  -0.000  -0.000  -0.000  -0.000  -0.000   0.000
 total augmentation occupancy for first ion, spin component:           1
  1.992   0.000   0.000  -0.028  -0.000   0.000   0.000  -0.000   0.000   0.000   0.000   0.000   0.000   0.000   0.000   0.000
  0.000   1.992   0.000   0.000  -0.028   0.000   0.000   0.000  -0.000   0.000   0.000  -0.000   0.000   0.000   0.000  -0.000
  0.000   0.000   1.992   0.000   0.000  -0.026   0.000  -0.000  -0.000  -0.000   0.000   0.000   0.000  -0.000   0.000   0.000
 -0.028   0.000   0.000   0.146  -0.000   0.000  -0.000  -0.000   0.000   0.000   0.000   0.000   0.000   0.000   0.000   0.000
 -0.000  -0.028   0.000  -0.000   0.151   0.000   0.000   0.000  -0.000   0.000   0.000   0.000   0.000   0.000   0.000  -0.000
  0.000   0.000  -0.026   0.000   0.000   0.156   0.000  -0.000   0.000  -0.000   0.000   0.000   0.000   0.000   0.000   0.000
  0.000   0.000   0.000  -0.000   0.000   0.000   2.884   0.000   0.000   0.000  -0.000  -1.492   0.000   0.000   0.000  -0.000
 -0.000   0.000  -0.000  -0.000   0.000  -0.000   0.000   2.986   0.000   0.000   0.000   0.000  -1.817   0.000   0.000  -0.000
  0.000  -0.000  -0.000   0.000  -0.000   0.000   0.000   0.000   3.314   0.000   0.130   0.000   0.000  -1.794  -0.000  -0.007
  0.000   0.000  -0.000   0.000   0.000  -0.000   0.000   0.000   0.000   2.704   0.000   0.000   0.000   0.000  -1.362   0.000
  0.000   0.000   0.000   0.000   0.000   0.000  -0.000   0.000   0.130   0.000   3.090  -0.000   0.000  -0.008  -0.000  -1.671
  0.000  -0.000   0.000   0.000   0.000   0.000  -1.492   0.000   0.000   0.000  -0.000   1.505   0.000   0.000  -0.000  -0.000
  0.000   0.000   0.000   0.000   0.000   0.000   0.000  -1.817   0.000   0.000   0.000   0.000   1.858   0.000   0.000   0.000
  0.000   0.000  -0.000   0.000   0.000   0.000   0.000   0.000  -1.794   0.000  -0.008   0.000   0.000   1.561   0.000  -0.074
  0.000   0.000   0.000   0.000   0.000   0.000   0.000   0.000  -0.000  -1.362  -0.000  -0.000   0.000   0.000   1.499  -0.000
  0.000  -0.000   0.000   0.000  -0.000   0.000  -0.000  -0.000  -0.007   0.000  -1.671  -0.000   0.000  -0.074  -0.000   1.525
  0.000   0.000   0.000   0.000   0.000   0.000   0.000   0.000  -0.066   0.000   0.070   0.000   0.000   0.046  -0.000   0.018
  0.000  -0.000   0.000   0.000  -0.000   0.000   0.000   0.000   0.007   0.000  -0.016   0.000   0.000  -0.004   0.000   0.006
 total augmentation occupancy for first ion, spin component:           2
  0.002   0.000   0.000   0.009   0.000   0.000   0.000  -0.000   0.000   0.000   0.000   0.000   0.000   0.000   0.000   0.000
  0.000   0.002   0.000   0.000   0.009   0.000  -0.000   0.000  -0.000   0.000   0.000  -0.000   0.000   0.000   0.000  -0.000
  0.000   0.000   0.002  -0.000   0.000   0.010   0.000   0.000  -0.000  -0.000   0.000   0.000  -0.000   0.000   0.000   0.000
  0.009   0.000  -0.000  -0.003   0.000   0.000   0.000   0.000   0.000   0.000  -0.000   0.000   0.000   0.000   0.000   0.000
  0.000   0.009   0.000   0.000   0.006   0.000   0.000   0.000   0.000   0.000   0.000   0.000  -0.000  -0.000   0.000  -0.000
  0.000   0.000   0.010   0.000   0.000   0.008   0.000  -0.000   0.000   0.000   0.000   0.000   0.000   0.000  -0.000   0.000
  0.000  -0.000   0.000   0.000   0.000   0.000  -2.460   0.000   0.000   0.000  -0.000   1.079   0.000   0.000   0.000   0.000
 -0.000   0.000   0.000   0.000   0.000  -0.000   0.000  -2.366   0.000   0.000   0.000   0.000   0.840   0.000   0.000   0.000
  0.000  -0.000  -0.000   0.000   0.000   0.000   0.000   0.000  -2.797   0.000  -0.078   0.000   0.000   1.208   0.000   0.120
  0.000   0.000  -0.000   0.000   0.000   0.000   0.000   0.000   0.000  -2.223   0.000  -0.000   0.000   0.000   0.967  -0.000
  0.000   0.000   0.000  -0.000   0.000   0.000  -0.000   0.000  -0.078   0.000  -2.622   0.000   0.000   0.119  -0.000   1.052
  0.000  -0.000   0.000   0.000   0.000   0.000   1.079   0.000   0.000  -0.000   0.000  -0.279   0.000   0.000  -0.000   0.000
  0.000   0.000  -0.000   0.000  -0.000   0.000   0.000   0.840   0.000   0.000   0.000   0.000  -0.051   0.000   0.000   0.000
  0.000   0.000   0.000   0.000  -0.000   0.000   0.000   0.000   1.208   0.000   0.119   0.000   0.000  -0.397  -0.000  -0.142
  0.000   0.000   0.000   0.000   0.000  -0.000   0.000   0.000   0.000   0.967  -0.000  -0.000   0.000  -0.000  -0.183  -0.000
  0.000  -0.000   0.000   0.000  -0.000   0.000   0.000   0.000   0.120  -0.000   1.052   0.000   0.000  -0.142  -0.000  -0.243
  0.000   0.000   0.000   0.000   0.000   0.000   0.000   0.000   0.013  -0.000  -0.055   0.000   0.000  -0.013  -0.000   0.077
  0.000   0.000   0.000   0.000  -0.000   0.000   0.000   0.000  -0.004   0.000   0.015   0.000   0.000   0.001   0.000  -0.005


------------------------ aborting loop because EDIFF is reached ----------------------------------------





 total charge

# of ion       s       p       d       tot
------------------------------------------
    1        0.330   6.278   5.996  12.604
    2        0.323   6.271   5.962  12.556
    3        0.323   6.271   5.962  12.556
    4        0.329   6.279   5.960  12.569
    5        0.329   6.280   5.960  12.569
    6        0.326   6.279   5.958  12.564
    7        0.330   6.278   5.996  12.604
    8        0.323   6.271   5.962  12.556
    9        0.323   6.271   5.962  12.556
   10        0.725   0.574   7.999   9.297
   11        0.725   0.574   7.999   9.298
   12        0.711   0.602   7.994   9.307
--------------------------------------------------
tot          5.098  58.230  77.708 141.037



 magnetization (x)

# of ion       s       p       d       tot
------------------------------------------
    1       -0.008   0.009  -2.798  -2.797
    2        0.013   0.002   2.802   2.817
    3        0.013   0.002   2.802   2.817
    4       -0.016  -0.024  -2.795  -2.834
    5       -0.016  -0.024  -2.793  -2.833
    6        0.006  -0.017   2.952   2.941
    7       -0.008   0.009  -2.798  -2.797
    8        0.013   0.002   2.802   2.817
    9        0.013   0.002   2.802   2.817
   10        0.007   0.019  -0.103  -0.077
   11        0.007   0.019  -0.102  -0.077
   12       -0.039  -0.089   0.379   0.252
--------------------------------------------------
tot         -0.016  -0.088   3.149   3.044
 
    FORLOC:  cpu time      0.0010: real time      0.0010
    FORNL :  cpu time      0.6130: real time      0.6163
    STRESS:  cpu time      4.6778: real time      4.7151
    FORCOR:  cpu time      0.0224: real time      0.0226
    OFIELD:  cpu time      0.0001: real time      0.0001

  FORCE on cell =-STRESS in cart. coord.  units (eV):
  Direction    XX          YY          ZZ          XY          YZ          ZX
  --------------------------------------------------------------------------------------
  Alpha Z   989.47750   989.47750   989.47750
  Ewald   -5806.09596 -5806.09596 -5877.11184     0.00000    -0.00000    -0.00000
  Hartree  2009.65702  2009.65702  1943.66893    -0.00000    -0.00000    -0.00000
  E(xc)    -941.20669  -941.20669  -941.13363    -0.00000    -0.00000    -0.00000
  Local     839.23755   839.23755   987.38267     0.00000     0.00000     0.00000
  n-local  -229.99467  -245.27500  -238.82115    12.72711     0.01297    -0.04668
  augment  1443.47868  1443.47868  1437.21875    -0.00000     0.00000     0.00000
  Kinetic  1694.24304  1680.69830  1683.74170     0.89466     0.27507     0.45259
  Fock        0.00000     0.00000     0.00000     0.00000     0.00000     0.00000
  -------------------------------------------------------------------------------------
  Total     -15.61607   -15.61607   -15.57707     0.00000    -0.00000     0.00000
  in kB    -145.46342  -145.46342  -145.10018     0.00000    -0.00000     0.00000
  external pressure =     -145.34 kB  Pullay stress =        0.00 kB


 VOLUME and BASIS-vectors are now :
 -----------------------------------------------------------------------------
  energy-cutoff  :      520.00
  volume of cell :      172.00
      direct lattice vectors                 reciprocal lattice vectors
     3.830280351  0.000000000  0.000000000     0.261077495  0.000000000  0.000000000
     0.000000000  3.830280351  0.000000000     0.000000000  0.261077495  0.000000000
     0.000000000  0.000000000 11.723770863     0.000000000  0.000000000  0.085296788

  length of vectors
     3.830280351  3.830280351 11.723770863     0.261077495  0.261077495  0.085296788


 FORCES acting on ions:
    Electron-Ion                     Ewald-Force                    Non-Local-Force
 -----------------------------------------------------------------------------------------------
   -.589E-13 0.121E-11 0.820E+00   -.491E-14 -.142E-13 -.821E+00   -.102E-21 -.549E-21 -.246E-02
   -.407E-13 0.126E-11 -.248E+01   0.236E-13 -.181E-14 0.369E+01   -.100E-18 -.133E-17 -.120E+01
   -.292E-13 0.275E-11 0.129E+01   0.424E-13 -.112E-13 -.249E+01   -.156E-18 -.102E-17 0.121E+01
   0.114E-11 -.416E-11 0.178E+03   -.916E-13 -.348E-14 -.175E+03   -.178E-18 0.284E-18 -.273E+01
   0.112E-11 0.671E-11 -.177E+03   0.159E-13 0.178E-13 0.174E+03   -.120E-18 -.507E-18 0.272E+01
   0.114E-11 0.562E-11 -.253E+00   -.541E-13 -.720E-14 0.253E+00   -.421E-21 0.253E-20 0.920E-03
   0.120E-11 -.359E-13 0.820E+00   0.408E-14 -.281E-13 -.821E+00   -.411E-21 -.215E-21 -.246E-02
   0.119E-11 -.482E-12 -.248E+01   -.270E-15 0.120E-13 0.369E+01   -.833E-18 0.279E-19 -.120E+01
   0.118E-11 0.200E-12 0.129E+01   -.478E-14 0.157E-13 -.249E+01   -.706E-19 -.214E-18 0.121E+01
   -.246E-13 0.230E-12 0.488E+02   0.589E-13 0.310E-13 -.491E+02   0.695E-18 0.493E-18 0.413E+00
   -.985E-14 0.156E-12 -.486E+02   -.259E-13 -.593E-14 0.489E+02   -.129E-18 0.265E-18 -.409E+00
   -.157E-13 -.390E-13 0.856E-01   0.441E-14 -.749E-15 -.818E-01   0.151E-21 0.110E-20 -.930E-02
 -----------------------------------------------------------------------------------------------
   0.684E-11 0.135E-10 -.522E-03   -.323E-13 0.389E-14 -.412E-12   -.892E-18 -.200E-17 0.511E-03
 
 
 POSITION                                       TOTAL-FORCE (eV/Angst)
 -----------------------------------------------------------------------------------
      0.00000      1.91514      1.95435        -0.000000     -0.000000     -0.003454
      0.00000      1.91514      5.86438         0.000000      0.000000     -0.000974
      0.00000      1.91514      9.76669         0.000000      0.000000      0.006949
      1.91514      1.91514      0.14862        -0.000000      0.000000      0.006872
      1.91514      1.91514      3.75987         0.000000      0.000000     -0.008209
      1.91514      1.91514      7.81556        -0.000000      0.000000      0.000056
      1.91514      0.00000      1.95435         0.000000     -0.000000     -0.003454
      1.91514      0.00000      5.86438         0.000000     -0.000000     -0.000974
      1.91514      0.00000      9.76669         0.000000     -0.000000      0.006949
      0.00000      0.00000     11.67712        -0.000000     -0.000000      0.004568
      0.00000      0.00000      3.95435         0.000000     -0.000000     -0.003611
      0.00000      0.00000      7.81626         0.000000     -0.000000     -0.004718
 -----------------------------------------------------------------------------------
    total drift:                                0.000000      0.000000     -0.000010


--------------------------------------------------------------------------------------------------------



  FREE ENERGIE OF THE ION-ELECTRON SYSTEM (eV)
  ---------------------------------------------------
  free  energy   TOTEN  =       -92.49315305 eV

  energy  without entropy=      -92.49670420  energy(sigma->0) =      -92.49433676
 


--------------------------------------------------------------------------------------------------------


    POTLOK:  cpu time      0.0381: real time      0.0384


--------------------------------------------------------------------------------------------------------




--------------------------------------------------------------------------------------------------------


  
 reached required accuracy - stopping structural energy minimisation
     LOOP+:  cpu time    175.4915: real time    177.8380
    4ORBIT:  cpu time      0.0000: real time      0.0000



 total charge

# of ion       s       p       d       tot
------------------------------------------
    1        0.330   6.278   5.996  12.604
    2        0.323   6.271   5.962  12.556
    3        0.323   6.271   5.962  12.556
    4        0.329   6.279   5.960  12.569
    5        0.329   6.280   5.960  12.569
    6        0.326   6.279   5.958  12.564
    7        0.330   6.278   5.996  12.604
    8        0.323   6.271   5.962  12.556
    9        0.323   6.271   5.962  12.556
   10        0.725   0.574   7.999   9.297
   11        0.725   0.574   7.999   9.298
   12        0.711   0.602   7.994   9.307
--------------------------------------------------
tot          5.098  58.230  77.708 141.037



 magnetization (x)

# of ion       s       p       d       tot
------------------------------------------
    1       -0.008   0.009  -2.798  -2.797
    2        0.013   0.002   2.802   2.817
    3        0.013   0.002   2.802   2.817
    4       -0.016  -0.024  -2.795  -2.834
    5       -0.016  -0.024  -2.793  -2.833
    6        0.006  -0.017   2.952   2.941
    7       -0.008   0.009  -2.798  -2.797
    8        0.013   0.002   2.802   2.817
    9        0.013   0.002   2.802   2.817
   10        0.007   0.019  -0.103  -0.077
   11        0.007   0.019  -0.102  -0.077
   12       -0.039  -0.089   0.379   0.252
--------------------------------------------------
tot         -0.016  -0.088   3.149   3.044
 

 total amount of memory used by VASP MPI-rank0   270990. kBytes
=======================================================================

   base      :      30000. kBytes
   nonl-proj :     113922. kBytes
   fftplans  :        955. kBytes
   grid      :       7297. kBytes
   one-center:        373. kBytes
   wavefun   :     118443. kBytes
 
  
  
 General timing and accounting informations for this job:
 ========================================================
  
                  Total CPU time used (sec):      192.383
                            User time (sec):      186.045
                          System time (sec):        6.338
                         Elapsed time (sec):      201.600
  
                   Maximum memory used (kb):      948076.
                   Average memory used (kb):          N/A
  
                          Minor page faults:       151373
                          Major page faults:          157
                 Voluntary context switches:        11505
