       N       E                     dE             d eps       ncg     rms          rms(c)
DAV:   1     0.177247988775E+04    0.17725E+04   -0.85088E+04 43040   0.178E+03
DAV:   2     0.589376590124E+01   -0.17666E+04   -0.16777E+04 43008   0.480E+02
DAV:   3    -0.103293987418E+03   -0.10919E+03   -0.10779E+03 50464   0.128E+02
DAV:   4    -0.104907944051E+03   -0.16140E+01   -0.16137E+01 45952   0.156E+01
DAV:   5    -0.104940120171E+03   -0.32176E-01   -0.32175E-01 52896   0.213E+00    0.373E+01
DAV:   6    -0.115311854666E+03   -0.10372E+02   -0.18487E+02 51904   0.682E+01    0.723E+01
DAV:   7    -0.110117615817E+03    0.51942E+01   -0.44268E+02 52768   0.568E+01    0.614E+01
DAV:   8    -0.969257530911E+02    0.13192E+02   -0.12467E+02 51552   0.451E+01    0.322E+01
DAV:   9    -0.105153119281E+03   -0.82274E+01   -0.16617E+02 51744   0.372E+01    0.587E+01
DAV:  10    -0.963627093939E+02    0.87904E+01   -0.13804E+02 52256   0.242E+01    0.336E+01
DAV:  11    -0.918160029536E+02    0.45467E+01   -0.23938E+01 51712   0.186E+01    0.134E+01
DAV:  12    -0.924948049066E+02   -0.67880E+00   -0.26483E+00 51392   0.636E+00    0.102E+01
DAV:  13    -0.927436702151E+02   -0.24887E+00   -0.14101E+00 51552   0.568E+00    0.105E+01
DAV:  14    -0.929586152228E+02   -0.21495E+00   -0.11931E+00 52640   0.446E+00    0.915E+00
DAV:  15    -0.931176228901E+02   -0.15901E+00   -0.16217E+00 52512   0.568E+00    0.457E+00
DAV:  16    -0.932108863663E+02   -0.93263E-01   -0.88846E-01 51136   0.403E+00    0.506E+00
DAV:  17    -0.932223796635E+02   -0.11493E-01   -0.85998E-01 50912   0.408E+00    0.478E+00
DAV:  18    -0.932365167686E+02   -0.14137E-01   -0.22182E-01 51072   0.226E+00    0.362E+00
DAV:  19    -0.932300615907E+02    0.64552E-02   -0.14348E-01 51488   0.204E+00    0.145E+00
DAV:  20    -0.932366385301E+02   -0.65769E-02   -0.39485E-02 52736   0.797E-01    0.112E+00
DAV:  21    -0.932410940887E+02   -0.44556E-02   -0.11917E-02 52000   0.526E-01    0.674E-01
DAV:  22    -0.932425729397E+02   -0.14789E-02   -0.61091E-03 51936   0.391E-01    0.367E-01
DAV:  23    -0.932430107561E+02   -0.43782E-03   -0.11882E-03 51008   0.180E-01    0.193E-01
DAV:  24    -0.932431299896E+02   -0.11923E-03   -0.66794E-04 52800   0.111E-01    0.782E-02
DAV:  25    -0.932431438848E+02   -0.13895E-04   -0.12885E-04 50912   0.422E-02    0.474E-02
DAV:  26    -0.932431485666E+02   -0.46818E-05   -0.46654E-05 51360   0.214E-02    0.303E-02
DAV:  27    -0.932431490767E+02   -0.51011E-06   -0.31226E-05 51360   0.233E-02    0.231E-02
DAV:  28    -0.932431512677E+02   -0.21910E-05   -0.79434E-06 46464   0.116E-02    0.161E-02
DAV:  29    -0.932431498651E+02    0.14026E-05   -0.31148E-06 28768   0.764E-03    0.741E-03
DAV:  30    -0.932431491737E+02    0.69139E-06   -0.49455E-07 25536   0.353E-03
   1 F= -.93243149E+02 E0= -.93243149E+02  d E =0.000000E+00  mag=     8.4433
