 vasp.6.4.3 19Mar24 (build Mar 26 2024 14:05:37) complex                        
  
 executed on             LinuxIFC date 2024.12.16  22:16:10
 running  128 mpi-ranks, on    1 nodes
 distrk:  each k-point on   32 cores,    4 groups
 distr:  one band on NCORE=   1 cores,   32 groups


--------------------------------------------------------------------------------------------------------


 INCAR:
   ALGO = Normal
   EDIFF = 1e-06
   EDIFFG = -0.01
   ENCUT = 520
   GGA = Pe
   IBRION = -1
   ISIF = 4
   ISMEAR = -5
   ISPIN = 2
   KPAR = 4
   LCHARG = True
   LORBIT = 11
   LREAL = False
   LWAVE = False
   MAGMOM = 1*-2.624 1*2.682 1*2.667 1*-2.667 1*2.653 1*2.81 1*-2.624 1*2.682 1*2.667 1*-0.046 1*0.054 1*0.275
   NELM = 200
   NSW = 0
   PREC = Accurate
   SIGMA = 0.2

 POTCAR:    PAW_PBE Fe_pv 02Aug2007               
 POTCAR:    PAW_PBE Pt 04Feb2005                  
 -----------------------------------------------------------------------------
|                                                                             |
|           W    W    AA    RRRRR   N    N  II  N    N   GGGG   !!!           |
|           W    W   A  A   R    R  NN   N  II  NN   N  G    G  !!!           |
|           W    W  A    A  R    R  N N  N  II  N N  N  G       !!!           |
|           W WW W  AAAAAA  RRRRR   N  N N  II  N  N N  G  GGG   !            |
|           WW  WW  A    A  R   R   N   NN  II  N   NN  G    G                |
|           W    W  A    A  R    R  N    N  II  N    N   GGGG   !!!           |
|                                                                             |
|     For optimal performance we recommend to set                             |
|       NCORE = 2 up to number-of-cores-per-socket                            |
|     NCORE specifies how many cores store one orbital (NPAR=cpu/NCORE).      |
|     This setting can greatly improve the performance of VASP for DFT.       |
|     The default, NCORE=1 might be grossly inefficient on modern             |
|     multi-core architectures or massively parallel machines. Do your        |
|     own testing! More info at https://www.vasp.at/wiki/index.php/NCORE      |
|     Unfortunately you need to use the default for GW and RPA                |
|     calculations (for HF NCORE is supported but not extensively tested      |
|     yet).                                                                   |
|                                                                             |
 -----------------------------------------------------------------------------

 POTCAR:    PAW_PBE Fe_pv 02Aug2007               
   SHA256 =  5d22e414b1f82158bf2c7ecb8b97b28fd0923e48cadc1c3bf74d524558f5dd32 Fe_pv/POTCAR          
   COPYR  = (c) Copyright 02Aug2007 Georg Kresse                                                    
   COPYR  = This file is part of the software VASP. Any use, copying, and all other rights are regul
   COPYR  = If you do not have a valid VASP license, you may not use, copy or distribute this file. 
   VRHFIN =Fe:  3pd7s1                                                                              
   LEXCH  = PE                                                                                      
   EATOM  =  2457.4239 eV,  180.6156 Ry                                                             
                                                                                                    
   TITEL  = PAW_PBE Fe_pv 02Aug2007                                                                 
   LULTRA =        F    use ultrasoft PP ?                                                          
   IUNSCR =        1    unscreen: 0-lin 1-nonlin 2-no                                               
   RPACOR =    1.750    partial core radius                                                         
   POMASS =   55.847; ZVAL   =   14.000    mass and valenz                                          
   RCORE  =    2.200    outmost cutoff radius                                                       
   RWIGS  =    2.200; RWIGS  =    1.164    wigner-seitz radius (au A)                               
   ENMAX  =  293.238; ENMIN  =  219.928 eV                                                          
   ICORE  =        3    local potential                                                             
   LCOR   =        T    correct aug charges                                                         
   LPAW   =        T    paw PP                                                                      
   EAUG   =  578.342                                                                                
   DEXC   =    0.000                                                                                
   RMAX   =    2.249    core radius for proj-oper                                                   
   RAUG   =    1.300    factor for augmentation sphere                                              
   RDEP   =    2.296    radius for radial grids                                                     
   RDEPT  =    1.766    core radius for aug-charge                                                  
                                                                                                    
   Atomic configuration                                                                             
    8 entries                                                                                       
     n  l   j            E        occ.                                                              
     1  0  0.50     -6993.8440   2.0000                                                             
     2  0  0.50      -814.6047   2.0000                                                             
     2  1  1.50      -693.3689   6.0000                                                             
     3  0  0.50       -89.4732   2.0000                                                             
     3  1  1.50       -55.6373   6.0000                                                             
     3  2  2.50        -3.8151   7.0000                                                             
     4  0  0.50        -4.2551   1.0000                                                             
     4  3  2.50        -1.3606   0.0000                                                             
   Description                                                                                      
     l       E           TYP  RCUT    TYP  RCUT                                                     
     1    -55.6372668     23  2.000                                                                 
     1     -5.4423304     23  2.000                                                                 
     2     -3.8151096     23  2.200                                                                 
     2     -5.1756922     23  2.200                                                                 
     0     -4.2550951     23  2.200                                                                 
     0     27.2116520     23  2.200                                                                 
     3     -1.3605826     23  2.200                                                                 
  local pseudopotential read in
  partial core-charges read in
  partial kinetic energy density read in
  atomic valenz-charges read in
  non local Contribution for L=           1  read in
    real space projection operators read in
  non local Contribution for L=           1  read in
    real space projection operators read in
  non local Contribution for L=           2  read in
    real space projection operators read in
  non local Contribution for L=           2  read in
    real space projection operators read in
  non local Contribution for L=           0  read in
    real space projection operators read in
  non local Contribution for L=           0  read in
    real space projection operators read in
    PAW grid and wavefunctions read in
 
   number of l-projection  operators is LMAX  =           6
   number of lm-projection operators is LMMAX =          18
 
 POTCAR:    PAW_PBE Pt 04Feb2005                  
   SHA256 =  3ed90460adef76debcff1cfb73ee1349b515b1a3db03439735b44de3a8db7dc8 Pt/POTCAR             
   COPYR  = (c) Copyright 04Feb2005 Georg Kresse                                                    
   COPYR  = This file is part of the software VASP. Any use, copying, and all other rights are regul
   COPYR  = If you do not have a valid VASP license, you may not use, copy or distribute this file. 
   VRHFIN =Pt: s1d9                                                                                 
   LEXCH  = PE                                                                                      
   EATOM  =   729.1176 eV,   53.5886 Ry                                                             
                                                                                                    
   TITEL  = PAW_PBE Pt 04Feb2005                                                                    
   LULTRA =        F    use ultrasoft PP ?                                                          
   IUNSCR =        1    unscreen: 0-lin 1-nonlin 2-no                                               
   RPACOR =    2.330    partial core radius                                                         
   POMASS =  195.080; ZVAL   =   10.000    mass and valenz                                          
   RCORE  =    2.600    outmost cutoff radius                                                       
   RWIGS  =    2.750; RWIGS  =    1.455    wigner-seitz radius (au A)                               
   ENMAX  =  230.283; ENMIN  =  172.712 eV                                                          
   ICORE  =        3    local potential                                                             
   LCOR   =        T    correct aug charges                                                         
   LPAW   =        T    paw PP                                                                      
   EAUG   =  358.966                                                                                
   DEXC   =    0.000                                                                                
   RMAX   =    2.658    core radius for proj-oper                                                   
   RAUG   =    1.300    factor for augmentation sphere                                              
   RDEP   =    2.761    radius for radial grids                                                     
   RDEPT  =    2.203    core radius for aug-charge                                                  
                                                                                                    
   Atomic configuration                                                                             
   16 entries                                                                                       
     n  l   j            E        occ.                                                              
     1  0  0.50    -78401.1885   2.0000                                                             
     2  0  0.50    -13770.7750   2.0000                                                             
     2  1  1.50    -11931.0468   6.0000                                                             
     3  0  0.50     -3234.7234   2.0000                                                             
     3  1  1.50     -2699.2216   6.0000                                                             
     3  2  2.50     -2119.5714  10.0000                                                             
     4  0  0.50      -695.1528   2.0000                                                             
     4  1  1.50      -519.6034   6.0000                                                             
     4  2  2.50      -306.6786  10.0000                                                             
     4  3  3.50       -70.1041  14.0000                                                             
     5  0  0.50      -101.7747   2.0000                                                             
     5  1  1.50       -55.9873   6.0000                                                             
     5  2  2.50        -6.1423   9.0000                                                             
     6  0  0.50        -5.6573   1.0000                                                             
     6  1  1.50        -6.8029   0.0000                                                             
     5  3  2.50        -1.3606   0.0000                                                             
   Description                                                                                      
     l       E           TYP  RCUT    TYP  RCUT                                                     
     2     -6.1423404     23  2.500                                                                 
     2     -7.5029230     23  2.500                                                                 
     0     -5.6573207     23  2.500                                                                 
     0      0.7416693     23  2.500                                                                 
     1     -2.7211652     23  2.600                                                                 
     1     20.4087390     23  2.600                                                                 
     3     -1.3605826     23  2.500                                                                 
  local pseudopotential read in
  partial core-charges read in
  partial kinetic energy density read in
  atomic valenz-charges read in
  non local Contribution for L=           2  read in
    real space projection operators read in
  non local Contribution for L=           2  read in
    real space projection operators read in
  non local Contribution for L=           0  read in
    real space projection operators read in
  non local Contribution for L=           0  read in
    real space projection operators read in
  non local Contribution for L=           1  read in
    real space projection operators read in
  non local Contribution for L=           1  read in
    real space projection operators read in
    PAW grid and wavefunctions read in
 
   number of l-projection  operators is LMAX  =           6
   number of lm-projection operators is LMMAX =          18
 
  PAW_PBE Fe_pv 02Aug2007               :
 energy of atom  1       EATOM=-2457.4239
 kinetic energy error for atom=    0.0062 (will be added to EATOM!!)
  PAW_PBE Pt 04Feb2005                  :
 energy of atom  2       EATOM= -729.1176
 kinetic energy error for atom=    0.0032 (will be added to EATOM!!)
 
 
 POSCAR: Fe9 Pt3
  positions in direct lattice
  velocities in cartesian coordinates


 exchange-correlation table for PE
   RHO(1)=    0.500       N(1)  =     2000
   RHO(2)=  100.500       N(2)  =     4000
 


--------------------------------------------------------------------------------------------------------


 ion  position               nearest neighbor table
   1  0.000  0.500  0.166-   4 2.62   4 2.62  11 2.64  11 2.64   7 2.65   7 2.65   7 2.65   7 2.65
                            10 2.69  10 2.69   5 2.72   5 2.72
   2  0.000  0.500  0.499-   5 2.61   5 2.61   8 2.65   8 2.65   8 2.65   8 2.65   6 2.65   6 2.65
                            12 2.67  12 2.67  11 2.70  11 2.70
   3  0.000  0.500  0.833-   9 2.65   9 2.65   9 2.65   9 2.65  10 2.65  10 2.65  12 2.67  12 2.67
                             6 2.69   6 2.69   4 2.72   4 2.72
   4  0.500  0.500  0.006-   1 2.62   7 2.62   7 2.62   1 2.62  10 2.65  10 2.65  10 2.65  10 2.65
                             9 2.72   3 2.72   9 2.72   3 2.72
   5  0.500  0.500  0.340-   2 2.61   8 2.61   8 2.61   2 2.61  11 2.65  11 2.65  11 2.65  11 2.65
                             1 2.72   7 2.72   1 2.72   7 2.72
   6  0.500  0.500  0.664-  12 2.65  12 2.65  12 2.65  12 2.65   8 2.65   2 2.65   2 2.65   8 2.65
                             9 2.69   3 2.69   9 2.69   3 2.69
   7  0.500  0.000  0.166-   4 2.62   4 2.62  11 2.64  11 2.64   1 2.65   1 2.65   1 2.65   1 2.65
                            10 2.69  10 2.69   5 2.72   5 2.72
   8  0.500  0.000  0.499-   5 2.61   5 2.61   2 2.65   2 2.65   2 2.65   2 2.65   6 2.65   6 2.65
                            12 2.67  12 2.67  11 2.70  11 2.70
   9  0.500  0.000  0.833-   3 2.65   3 2.65   3 2.65   3 2.65  10 2.65  10 2.65  12 2.67  12 2.67
                             6 2.69   6 2.69   4 2.72   4 2.72
  10  0.000  0.000  0.998-   4 2.65   4 2.65   4 2.65   4 2.65   3 2.65   9 2.65   9 2.65   3 2.65
                             1 2.69   7 2.69   7 2.69   1 2.69
  11  0.000  0.000  0.329-   1 2.64   7 2.64   1 2.64   7 2.64   5 2.65   5 2.65   5 2.65   5 2.65
                             2 2.70   2 2.70   8 2.70   8 2.70
  12  0.000  0.000  0.666-   6 2.65   6 2.65   6 2.65   6 2.65   2 2.67   8 2.67   8 2.67   2 2.67
                             3 2.67   3 2.67   9 2.67   9 2.67
 
  LATTYP: Found a simple tetragonal cell.
 ALAT       =     3.7438286521
 C/A-ratio  =     3.0491029741
  
  Lattice vectors:
  
 A1 = (   3.7438286521,   0.0000000000,   0.0000000000)
 A2 = (   0.0000000000,   3.7438286521,   0.0000000000)
 A3 = (   0.0000000000,   0.0000000000,  11.4153190776)


Analysis of symmetry for initial positions (statically):
=====================================================================
 Subroutine PRICEL returns:
 Original cell was already a primitive cell.
 

 Routine SETGRP: Setting up the symmetry group for a 
 simple tetragonal supercell.


 Subroutine GETGRP returns: Found  8 space group operations
 (whereof  8 operations were pure point group operations)
 out of a pool of 16 trial point group operations.


The static configuration has the point symmetry C_4v.


Analysis of symmetry for dynamics (positions and initial velocities):
=====================================================================
 Subroutine PRICEL returns:
 Original cell was already a primitive cell.
 

 Routine SETGRP: Setting up the symmetry group for a 
 simple tetragonal supercell.


 Subroutine GETGRP returns: Found  8 space group operations
 (whereof  8 operations were pure point group operations)
 out of a pool of 16 trial point group operations.


The dynamic configuration has the point symmetry C_4v.


Analysis of structural, dynamic, and magnetic symmetry:
=====================================================================
 Subroutine PRICEL returns:
 Original cell was already a primitive cell.
 

 Routine SETGRP: Setting up the symmetry group for a 
 simple tetragonal supercell.


 Subroutine GETGRP returns: Found  8 space group operations
 (whereof  8 operations were pure point group operations)
 out of a pool of 16 trial point group operations.


The overall configuration has the point symmetry C_4v.


 Subroutine INISYM returns: Found  8 space group operations
 (whereof  8 operations are pure point group operations),
 and found     1 'primitive' translations


----------------------------------------------------------------------------------------

                                     Primitive cell                                     

  volume of cell :     160.0000

  direct lattice vectors                    reciprocal lattice vectors
     3.743828652  0.000000000  0.000000000     0.267106241  0.000000000  0.000000000
     0.000000000  3.743828652  0.000000000     0.000000000  0.267106241  0.000000000
     0.000000000  0.000000000 11.415319078     0.000000000  0.000000000  0.087601581

  length of vectors
     3.743828652  3.743828652 11.415319078     0.267106241  0.267106241  0.087601581

  position of ions in fractional coordinates (direct lattice)
     0.000000000  0.500000000  0.166465421
     0.000000000  0.500000000  0.499430635
     0.000000000  0.500000000  0.832989739
     0.500000000  0.500000000  0.005680728
     0.500000000  0.500000000  0.339653527
     0.500000000  0.500000000  0.663988686
     0.500000000  0.000000000  0.166465421
     0.500000000  0.000000000  0.499430635
     0.500000000  0.000000000  0.832989739
     0.000000000  0.000000000  0.997703953
     0.000000000  0.000000000  0.329046228
     0.000000000  0.000000000  0.666155291

  ion indices of the primitive-cell ions
   primitive index   ion index
                 1           1
                 2           2
                 3           3
                 4           4
                 5           5
                 6           6
                 7           7
                 8           8
                 9           9
                10          10
                11          11
                12          12

----------------------------------------------------------------------------------------

 
 
 KPOINTS: pymatgen with grid density = 8800 / numb

Automatic generation of k-mesh.
 Grid dimensions read from file:
 generate k-points for:   13   13    4

 Generating k-lattice:

  Cartesian coordinates                     Fractional coordinates (reciprocal lattice)
     0.020546634  0.000000000  0.000000000     0.076923077  0.000000000  0.000000000
     0.000000000  0.020546634  0.000000000     0.000000000  0.076923077  0.000000000
     0.000000000  0.000000000  0.021900395     0.000000000  0.000000000  0.250000000

  Length of vectors
     0.020546634  0.020546634  0.021900395

  Shift w.r.t. Gamma in fractional coordinates (k-lattice)
     0.000000000  0.000000000  0.000000000

 TETIRR: Found   1010 inequivalent tetrahedra from     4056
 
 Subroutine IBZKPT returns following result:
 ===========================================
 
 Found     84 irreducible k-points:
 
 Following reciprocal coordinates:
            Coordinates               Weight
  0.000000  0.000000  0.000000      1.000000
  0.076923  0.000000  0.000000      4.000000
  0.153846  0.000000  0.000000      4.000000
  0.230769  0.000000  0.000000      4.000000
  0.307692  0.000000  0.000000      4.000000
  0.384615  0.000000  0.000000      4.000000
  0.461538  0.000000  0.000000      4.000000
  0.076923  0.076923  0.000000      4.000000
  0.153846  0.076923  0.000000      8.000000
  0.230769  0.076923  0.000000      8.000000
  0.307692  0.076923  0.000000      8.000000
  0.384615  0.076923  0.000000      8.000000
  0.461538  0.076923  0.000000      8.000000
  0.153846  0.153846  0.000000      4.000000
  0.230769  0.153846  0.000000      8.000000
  0.307692  0.153846  0.000000      8.000000
  0.384615  0.153846  0.000000      8.000000
  0.461538  0.153846  0.000000      8.000000
  0.230769  0.230769  0.000000      4.000000
  0.307692  0.230769  0.000000      8.000000
  0.384615  0.230769  0.000000      8.000000
  0.461538  0.230769  0.000000      8.000000
  0.307692  0.307692  0.000000      4.000000
  0.384615  0.307692  0.000000      8.000000
  0.461538  0.307692  0.000000      8.000000
  0.384615  0.384615  0.000000      4.000000
  0.461538  0.384615  0.000000      8.000000
  0.461538  0.461538  0.000000      4.000000
  0.000000  0.000000  0.250000      2.000000
  0.076923  0.000000  0.250000      8.000000
  0.153846  0.000000  0.250000      8.000000
  0.230769  0.000000  0.250000      8.000000
  0.307692  0.000000  0.250000      8.000000
  0.384615  0.000000  0.250000      8.000000
  0.461538  0.000000  0.250000      8.000000
  0.076923  0.076923  0.250000      8.000000
  0.153846  0.076923  0.250000     16.000000
  0.230769  0.076923  0.250000     16.000000
  0.307692  0.076923  0.250000     16.000000
  0.384615  0.076923  0.250000     16.000000
  0.461538  0.076923  0.250000     16.000000
  0.153846  0.153846  0.250000      8.000000
  0.230769  0.153846  0.250000     16.000000
  0.307692  0.153846  0.250000     16.000000
  0.384615  0.153846  0.250000     16.000000
  0.461538  0.153846  0.250000     16.000000
  0.230769  0.230769  0.250000      8.000000
  0.307692  0.230769  0.250000     16.000000
  0.384615  0.230769  0.250000     16.000000
  0.461538  0.230769  0.250000     16.000000
  0.307692  0.307692  0.250000      8.000000
  0.384615  0.307692  0.250000     16.000000
  0.461538  0.307692  0.250000     16.000000
  0.384615  0.384615  0.250000      8.000000
  0.461538  0.384615  0.250000     16.000000
  0.461538  0.461538  0.250000      8.000000
  0.000000  0.000000  0.500000      1.000000
  0.076923  0.000000  0.500000      4.000000
  0.153846  0.000000  0.500000      4.000000
  0.230769  0.000000  0.500000      4.000000
  0.307692  0.000000  0.500000      4.000000
  0.384615  0.000000  0.500000      4.000000
  0.461538  0.000000  0.500000      4.000000
  0.076923  0.076923  0.500000      4.000000
  0.153846  0.076923  0.500000      8.000000
  0.230769  0.076923  0.500000      8.000000
  0.307692  0.076923  0.500000      8.000000
  0.384615  0.076923  0.500000      8.000000
  0.461538  0.076923  0.500000      8.000000
  0.153846  0.153846  0.500000      4.000000
  0.230769  0.153846  0.500000      8.000000
  0.307692  0.153846  0.500000      8.000000
  0.384615  0.153846  0.500000      8.000000
  0.461538  0.153846  0.500000      8.000000
  0.230769  0.230769  0.500000      4.000000
  0.307692  0.230769  0.500000      8.000000
  0.384615  0.230769  0.500000      8.000000
  0.461538  0.230769  0.500000      8.000000
  0.307692  0.307692  0.500000      4.000000
  0.384615  0.307692  0.500000      8.000000
  0.461538  0.307692  0.500000      8.000000
  0.384615  0.384615  0.500000      4.000000
  0.461538  0.384615  0.500000      8.000000
  0.461538  0.461538  0.500000      4.000000
 
 Following cartesian coordinates:
            Coordinates               Weight
  0.000000  0.000000  0.000000      1.000000
  0.020547  0.000000  0.000000      4.000000
  0.041093  0.000000  0.000000      4.000000
  0.061640  0.000000  0.000000      4.000000
  0.082187  0.000000  0.000000      4.000000
  0.102733  0.000000  0.000000      4.000000
  0.123280  0.000000  0.000000      4.000000
  0.020547  0.020547  0.000000      4.000000
  0.041093  0.020547  0.000000      8.000000
  0.061640  0.020547  0.000000      8.000000
  0.082187  0.020547  0.000000      8.000000
  0.102733  0.020547  0.000000      8.000000
  0.123280  0.020547  0.000000      8.000000
  0.041093  0.041093  0.000000      4.000000
  0.061640  0.041093  0.000000      8.000000
  0.082187  0.041093  0.000000      8.000000
  0.102733  0.041093  0.000000      8.000000
  0.123280  0.041093  0.000000      8.000000
  0.061640  0.061640  0.000000      4.000000
  0.082187  0.061640  0.000000      8.000000
  0.102733  0.061640  0.000000      8.000000
  0.123280  0.061640  0.000000      8.000000
  0.082187  0.082187  0.000000      4.000000
  0.102733  0.082187  0.000000      8.000000
  0.123280  0.082187  0.000000      8.000000
  0.102733  0.102733  0.000000      4.000000
  0.123280  0.102733  0.000000      8.000000
  0.123280  0.123280  0.000000      4.000000
  0.000000  0.000000  0.021900      2.000000
  0.020547  0.000000  0.021900      8.000000
  0.041093  0.000000  0.021900      8.000000
  0.061640  0.000000  0.021900      8.000000
  0.082187  0.000000  0.021900      8.000000
  0.102733  0.000000  0.021900      8.000000
  0.123280  0.000000  0.021900      8.000000
  0.020547  0.020547  0.021900      8.000000
  0.041093  0.020547  0.021900     16.000000
  0.061640  0.020547  0.021900     16.000000
  0.082187  0.020547  0.021900     16.000000
  0.102733  0.020547  0.021900     16.000000
  0.123280  0.020547  0.021900     16.000000
  0.041093  0.041093  0.021900      8.000000
  0.061640  0.041093  0.021900     16.000000
  0.082187  0.041093  0.021900     16.000000
  0.102733  0.041093  0.021900     16.000000
  0.123280  0.041093  0.021900     16.000000
  0.061640  0.061640  0.021900      8.000000
  0.082187  0.061640  0.021900     16.000000
  0.102733  0.061640  0.021900     16.000000
  0.123280  0.061640  0.021900     16.000000
  0.082187  0.082187  0.021900      8.000000
  0.102733  0.082187  0.021900     16.000000
  0.123280  0.082187  0.021900     16.000000
  0.102733  0.102733  0.021900      8.000000
  0.123280  0.102733  0.021900     16.000000
  0.123280  0.123280  0.021900      8.000000
  0.000000  0.000000  0.043801      1.000000
  0.020547  0.000000  0.043801      4.000000
  0.041093  0.000000  0.043801      4.000000
  0.061640  0.000000  0.043801      4.000000
  0.082187  0.000000  0.043801      4.000000
  0.102733  0.000000  0.043801      4.000000
  0.123280  0.000000  0.043801      4.000000
  0.020547  0.020547  0.043801      4.000000
  0.041093  0.020547  0.043801      8.000000
  0.061640  0.020547  0.043801      8.000000
  0.082187  0.020547  0.043801      8.000000
  0.102733  0.020547  0.043801      8.000000
  0.123280  0.020547  0.043801      8.000000
  0.041093  0.041093  0.043801      4.000000
  0.061640  0.041093  0.043801      8.000000
  0.082187  0.041093  0.043801      8.000000
  0.102733  0.041093  0.043801      8.000000
  0.123280  0.041093  0.043801      8.000000
  0.061640  0.061640  0.043801      4.000000
  0.082187  0.061640  0.043801      8.000000
  0.102733  0.061640  0.043801      8.000000
  0.123280  0.061640  0.043801      8.000000
  0.082187  0.082187  0.043801      4.000000
  0.102733  0.082187  0.043801      8.000000
  0.123280  0.082187  0.043801      8.000000
  0.102733  0.102733  0.043801      4.000000
  0.123280  0.102733  0.043801      8.000000
  0.123280  0.123280  0.043801      4.000000
 


--------------------------------------------------------------------------------------------------------




 Dimension of arrays:
   k-points           NKPTS =     84   k-points in BZ     NKDIM =     84   number of bands    NBANDS=    128
   number of dos      NEDOS =    301   number of ions     NIONS =     12
   non local maximal  LDIM  =      6   non local SUM 2l+1 LMDIM =     18
   total plane-waves  NPLWV =  70560
   max r-space proj   IRMAX =      1   max aug-charges    IRDMAX=  26907
   dimension x,y,z NGX =    28 NGY =   28 NGZ =   90
   dimension x,y,z NGXF=    56 NGYF=   56 NGZF=  180
   support grid    NGXF=    56 NGYF=   56 NGZF=  180
   ions per type =               9   3
   NGX,Y,Z   is equivalent  to a cutoff of  12.43, 12.43, 13.11 a.u.
   NGXF,Y,Z  is equivalent  to a cutoff of  24.87, 24.87, 26.21 a.u.

 SYSTEM =  unknown system                          
 POSCAR =  Fe9 Pt3                                 

 Startparameter for this run:
   NWRITE =      2    write-flag & timer
   PREC   = accura    normal or accurate (medium, high low for compatibility)
   ISTART =      0    job   : 0-new  1-cont  2-samecut
   ICHARG =      2    charge: 1-file 2-atom 10-const
   ISPIN  =      2    spin polarized calculation?
   LNONCOLLINEAR =      F non collinear calculations
   LSORBIT =      F    spin-orbit coupling
   INIWAV =      1    electr: 0-lowe 1-rand  2-diag
   LASPH  =      F    aspherical Exc in radial PAW
 Electronic Relaxation 1
   ENCUT  =  520.0 eV  38.22 Ry    6.18 a.u.   6.96  6.96 21.22*2*pi/ulx,y,z
   ENINI  =  520.0     initial cutoff
   ENAUG  =  578.3 eV  augmentation charge cutoff
   NELM   =    200;   NELMIN=  2; NELMDL=  0     # of ELM steps 
   EDIFF  = 0.1E-05   stopping-criterion for ELM
   LREAL  =      F    real-space projection
   NLSPLINE    = F    spline interpolate recip. space projectors
   LCOMPAT=      F    compatible to vasp.4.4
   GGA_COMPAT  = T    GGA compatible to vasp.4.4-vasp.4.6
   LMAXPAW     = -100 max onsite density
   LMAXMIX     =    2 max onsite mixed and CHGCAR
   VOSKOWN=      0    Vosko Wilk Nusair interpolation
   ROPT   =    0.00000   0.00000
 Ionic relaxation
   EDIFFG = -.1E-01   stopping-criterion for IOM
   NSW    =      0    number of steps for IOM
   NBLOCK =      1;   KBLOCK =      1    inner block; outer block 
   IBRION =     -1    ionic relax: 0-MD 1-quasi-New 2-CG
   NFREE  =      0    steps in history (QN), initial steepest desc. (CG)
   ISIF   =      4    stress and relaxation
   IWAVPR =     10    prediction:  0-non 1-charg 2-wave 3-comb
   ISYM   =      2    0-nonsym 1-usesym 2-fastsym
   LCORR  =      T    Harris-Foulkes like correction to forces

   POTIM  = 0.5000    time-step for ionic-motion
   TEIN   =    0.0    initial temperature
   TEBEG  =    0.0;   TEEND  =   0.0 temperature during run
   SMASS  =  -3.00    Nose mass-parameter (am)
   estimated Nose-frequenzy (Omega)   =  0.10E-29 period in steps = 0.13E+47 mass=  -0.320E-27a.u.
   SCALEE = 1.0000    scale energy and forces
   NPACO  =    256;   APACO  = 10.0  distance and # of slots for P.C.
   PSTRESS=    0.0 pullay stress

  Mass of Ions in am
   POMASS =  55.85195.08
  Ionic Valenz
   ZVAL   =  14.00 10.00
  Atomic Wigner-Seitz radii
   RWIGS  =  -1.00 -1.00
  virtual crystal weights 
   VCA    =   1.00  1.00
   NELECT =     156.0000    total number of electrons
   NUPDOWN=      -1.0000    fix difference up-down

 DOS related values:
   EMIN   =  10.00;   EMAX   =-10.00  energy-range for DOS
   EFERMI =   0.00;   METHOD = LEGACY      
   ISMEAR =    -5;   SIGMA  =   0.20  broadening in eV -4-tet -1-fermi 0-gaus

 Electronic relaxation 2 (details)
   IALGO  =     38    algorithm
   LDIAG  =      T    sub-space diagonalisation (order eigenvalues)
   LSUBROT=      F    optimize rotation matrix (better conditioning)
   TURBO    =      0    0=normal 1=particle mesh
   IRESTART =      0    0=no restart 2=restart with 2 vectors
   NREBOOT  =      0    no. of reboots
   NMIN     =      0    reboot dimension
   EREF     =   0.00    reference energy to select bands
   IMIX   =      4    mixing-type and parameters
     AMIX     =   0.40;   BMIX     =  1.00
     AMIX_MAG =   1.60;   BMIX_MAG =  1.00
     AMIN     =   0.10
     WC   =   100.;   INIMIX=   1;  MIXPRE=   1;  MAXMIX= -45

 Intra band minimization:
   WEIMIN = 0.0000     energy-eigenvalue tresh-hold
   EBREAK =  0.20E-08  absolut break condition
   DEPER  =   0.30     relativ break condition  

   TIME   =   0.40     timestep for ELM

  volume/ion in A,a.u.               =      13.33        89.98
  Fermi-wavevector in a.u.,A,eV,Ry     =   1.623341  3.067669 35.854553  2.635235
  Thomas-Fermi vector in A             =   2.716807
 
 Write flags
   LWAVE        =      F    write WAVECAR
   LDOWNSAMPLE  =      F    k-point downsampling of WAVECAR
   LCHARG       =      T    write CHGCAR
   LVTOT        =      F    write LOCPOT, total local potential
   LVHAR        =      F    write LOCPOT, Hartree potential only
   WRT_POTENTIAL= false  ! write potential to hdf5 file
   LELF         =      F    write electronic localiz. function (ELF)
   LORBIT       =     11    0 simple, 1 ext, 2 COOP (PROOUT), +10 PAW based schemes


 Dipole corrections
   LMONO      =      F    monopole corrections only (constant potential shift)
   LDIPOL     =      F    correct potential (dipole corrections)
   IDIPOL     =      0    1-x, 2-y, 3-z, 4-all directions 
   EPSILON    =  1.0000000 bulk dielectric constant
   LVACPOTAV  =      F  vacuum potentials using an averaging scheme for the charge density
   VACPOTFLAT =  0.1000000 required flatness to determine vacuum potential
 Exchange correlation treatment:
   GGA     = PE    functional components
   XC_C    = 1    coefficients multiplying the functional components
   LIBXC   =     F    Libxc                    
   VOSKOWN =     0    Vosko Wilk Nusair interpolation
   LHFCALC =     F    Hartree Fock is set to
   LHFONE  =     F    Hartree Fock one center treatment
   AEXX    =    0.0000 exact exchange contribution

 Parameters of functionals:
   PE:
     No parameter
 
 Van der Waals corrections
   IVDW    =     0    specifies the selected vdW correction

 Linear response parameters
   LEPSILON=     F    determine dielectric tensor
   LRPA    =     F    only Hartree local field effects (RPA)
   LNABLA  =     F    use nabla operator in PAW spheres
   LVEL    =     F    velocity operator in full k-point grid
   CSHIFT  =0.1000    complex shift for real part using Kramers Kronig
   OMEGAMAX=  -1.0    maximum frequency
   DEG_THRESHOLD= 0.2000000E-02 threshold for treating states as degnerate
   RTIME   =   -0.100 relaxation time in fs
  (WPLASMAI=    0.000 imaginary part of plasma frequency in eV, 0.658/RTIME)
   DFIELD  = 0.0000000 0.0000000 0.0000000 field for delta impulse in time
 
  Optional k-point grid parameters
   LKPOINTS_OPT  =     F    use optional k-point grid
   KPOINTS_OPT_MODE=     1    mode for optional k-point grid
 
 Orbital magnetization related:
   ORBITALMAG=     F  switch on orbital magnetization
   LCHIMAG   =     F  perturbation theory with respect to B field
   DQ        =  0.001000  dq finite difference perturbation B field
   LLRAUG    =     F  two centre corrections for induced B field
   LBONE     =     F  B-component reconstruction in AE one-centre
   LVGVCALC  =     T  calculate vGv susceptibility
   LVGVAPPL  =     F  apply vGv susceptibility instead of pGv for G=0

 Random number generation:
   RANDOM_GENERATOR = DEFAULT
   PCG_SEED         = not used


--------------------------------------------------------------------------------------------------------


 Static calculation
 charge density and potential will be updated during run
 spin polarized calculation
 Variant of blocked Davidson
 Davidson routine will perform the subspace rotation
 perform sub-space diagonalisation
    after iterative eigenvector-optimisation
 modified Broyden-mixing scheme, WC =      100.0
 initial mixing is a Kerker type mixing with AMIX =  0.4000 and BMIX =      1.0000
 Hartree-type preconditioning will be used
 using additional bands           50
 reciprocal scheme for non local part
 use partial core corrections
 calculate Harris-corrections to forces 
   (improved forces if not selfconsistent)
 use gradient corrections 
 use of overlap-Matrix (Vanderbilt PP)
 Fermi weights with tetrahedron method with Bloechl corrections


--------------------------------------------------------------------------------------------------------


  energy-cutoff  :      520.00
  volume of cell :      160.00
      direct lattice vectors                 reciprocal lattice vectors
     3.743828652  0.000000000  0.000000000     0.267106241  0.000000000  0.000000000
     0.000000000  3.743828652  0.000000000     0.000000000  0.267106241  0.000000000
     0.000000000  0.000000000 11.415319078     0.000000000  0.000000000  0.087601581

  length of vectors
     3.743828652  3.743828652 11.415319078     0.267106241  0.267106241  0.087601581


 
 k-points in units of 2pi/SCALE and weight: pymatgen with grid density = 8800 / numb
   0.00000000  0.00000000  0.00000000       0.001
   0.02054663  0.00000000  0.00000000       0.006
   0.04109327  0.00000000  0.00000000       0.006
   0.06163990  0.00000000  0.00000000       0.006
   0.08218654  0.00000000  0.00000000       0.006
   0.10273317  0.00000000  0.00000000       0.006
   0.12327980  0.00000000  0.00000000       0.006
   0.02054663  0.02054663  0.00000000       0.006
   0.04109327  0.02054663  0.00000000       0.012
   0.06163990  0.02054663  0.00000000       0.012
   0.08218654  0.02054663  0.00000000       0.012
   0.10273317  0.02054663  0.00000000       0.012
   0.12327980  0.02054663  0.00000000       0.012
   0.04109327  0.04109327  0.00000000       0.006
   0.06163990  0.04109327  0.00000000       0.012
   0.08218654  0.04109327  0.00000000       0.012
   0.10273317  0.04109327  0.00000000       0.012
   0.12327980  0.04109327  0.00000000       0.012
   0.06163990  0.06163990  0.00000000       0.006
   0.08218654  0.06163990  0.00000000       0.012
   0.10273317  0.06163990  0.00000000       0.012
   0.12327980  0.06163990  0.00000000       0.012
   0.08218654  0.08218654  0.00000000       0.006
   0.10273317  0.08218654  0.00000000       0.012
   0.12327980  0.08218654  0.00000000       0.012
   0.10273317  0.10273317  0.00000000       0.006
   0.12327980  0.10273317  0.00000000       0.012
   0.12327980  0.12327980  0.00000000       0.006
   0.00000000  0.00000000  0.02190040       0.003
   0.02054663  0.00000000  0.02190040       0.012
   0.04109327  0.00000000  0.02190040       0.012
   0.06163990  0.00000000  0.02190040       0.012
   0.08218654  0.00000000  0.02190040       0.012
   0.10273317  0.00000000  0.02190040       0.012
   0.12327980  0.00000000  0.02190040       0.012
   0.02054663  0.02054663  0.02190040       0.012
   0.04109327  0.02054663  0.02190040       0.024
   0.06163990  0.02054663  0.02190040       0.024
   0.08218654  0.02054663  0.02190040       0.024
   0.10273317  0.02054663  0.02190040       0.024
   0.12327980  0.02054663  0.02190040       0.024
   0.04109327  0.04109327  0.02190040       0.012
   0.06163990  0.04109327  0.02190040       0.024
   0.08218654  0.04109327  0.02190040       0.024
   0.10273317  0.04109327  0.02190040       0.024
   0.12327980  0.04109327  0.02190040       0.024
   0.06163990  0.06163990  0.02190040       0.012
   0.08218654  0.06163990  0.02190040       0.024
   0.10273317  0.06163990  0.02190040       0.024
   0.12327980  0.06163990  0.02190040       0.024
   0.08218654  0.08218654  0.02190040       0.012
   0.10273317  0.08218654  0.02190040       0.024
   0.12327980  0.08218654  0.02190040       0.024
   0.10273317  0.10273317  0.02190040       0.012
   0.12327980  0.10273317  0.02190040       0.024
   0.12327980  0.12327980  0.02190040       0.012
   0.00000000  0.00000000  0.04380079       0.001
   0.02054663  0.00000000  0.04380079       0.006
   0.04109327  0.00000000  0.04380079       0.006
   0.06163990  0.00000000  0.04380079       0.006
   0.08218654  0.00000000  0.04380079       0.006
   0.10273317  0.00000000  0.04380079       0.006
   0.12327980  0.00000000  0.04380079       0.006
   0.02054663  0.02054663  0.04380079       0.006
   0.04109327  0.02054663  0.04380079       0.012
   0.06163990  0.02054663  0.04380079       0.012
   0.08218654  0.02054663  0.04380079       0.012
   0.10273317  0.02054663  0.04380079       0.012
   0.12327980  0.02054663  0.04380079       0.012
   0.04109327  0.04109327  0.04380079       0.006
   0.06163990  0.04109327  0.04380079       0.012
   0.08218654  0.04109327  0.04380079       0.012
   0.10273317  0.04109327  0.04380079       0.012
   0.12327980  0.04109327  0.04380079       0.012
   0.06163990  0.06163990  0.04380079       0.006
   0.08218654  0.06163990  0.04380079       0.012
   0.10273317  0.06163990  0.04380079       0.012
   0.12327980  0.06163990  0.04380079       0.012
   0.08218654  0.08218654  0.04380079       0.006
   0.10273317  0.08218654  0.04380079       0.012
   0.12327980  0.08218654  0.04380079       0.012
   0.10273317  0.10273317  0.04380079       0.006
   0.12327980  0.10273317  0.04380079       0.012
   0.12327980  0.12327980  0.04380079       0.006
 
 k-points in reciprocal lattice and weights: pymatgen with grid density = 8800 / numb
   0.00000000  0.00000000  0.00000000       0.001
   0.07692308  0.00000000  0.00000000       0.006
   0.15384615  0.00000000  0.00000000       0.006
   0.23076923  0.00000000  0.00000000       0.006
   0.30769231  0.00000000  0.00000000       0.006
   0.38461538  0.00000000  0.00000000       0.006
   0.46153846  0.00000000  0.00000000       0.006
   0.07692308  0.07692308  0.00000000       0.006
   0.15384615  0.07692308  0.00000000       0.012
   0.23076923  0.07692308  0.00000000       0.012
   0.30769231  0.07692308  0.00000000       0.012
   0.38461538  0.07692308  0.00000000       0.012
   0.46153846  0.07692308  0.00000000       0.012
   0.15384615  0.15384615  0.00000000       0.006
   0.23076923  0.15384615  0.00000000       0.012
   0.30769231  0.15384615  0.00000000       0.012
   0.38461538  0.15384615  0.00000000       0.012
   0.46153846  0.15384615  0.00000000       0.012
   0.23076923  0.23076923  0.00000000       0.006
   0.30769231  0.23076923  0.00000000       0.012
   0.38461538  0.23076923  0.00000000       0.012
   0.46153846  0.23076923  0.00000000       0.012
   0.30769231  0.30769231  0.00000000       0.006
   0.38461538  0.30769231  0.00000000       0.012
   0.46153846  0.30769231  0.00000000       0.012
   0.38461538  0.38461538  0.00000000       0.006
   0.46153846  0.38461538  0.00000000       0.012
   0.46153846  0.46153846  0.00000000       0.006
   0.00000000  0.00000000  0.25000000       0.003
   0.07692308  0.00000000  0.25000000       0.012
   0.15384615  0.00000000  0.25000000       0.012
   0.23076923  0.00000000  0.25000000       0.012
   0.30769231  0.00000000  0.25000000       0.012
   0.38461538  0.00000000  0.25000000       0.012
   0.46153846  0.00000000  0.25000000       0.012
   0.07692308  0.07692308  0.25000000       0.012
   0.15384615  0.07692308  0.25000000       0.024
   0.23076923  0.07692308  0.25000000       0.024
   0.30769231  0.07692308  0.25000000       0.024
   0.38461538  0.07692308  0.25000000       0.024
   0.46153846  0.07692308  0.25000000       0.024
   0.15384615  0.15384615  0.25000000       0.012
   0.23076923  0.15384615  0.25000000       0.024
   0.30769231  0.15384615  0.25000000       0.024
   0.38461538  0.15384615  0.25000000       0.024
   0.46153846  0.15384615  0.25000000       0.024
   0.23076923  0.23076923  0.25000000       0.012
   0.30769231  0.23076923  0.25000000       0.024
   0.38461538  0.23076923  0.25000000       0.024
   0.46153846  0.23076923  0.25000000       0.024
   0.30769231  0.30769231  0.25000000       0.012
   0.38461538  0.30769231  0.25000000       0.024
   0.46153846  0.30769231  0.25000000       0.024
   0.38461538  0.38461538  0.25000000       0.012
   0.46153846  0.38461538  0.25000000       0.024
   0.46153846  0.46153846  0.25000000       0.012
   0.00000000  0.00000000  0.50000000       0.001
   0.07692308  0.00000000  0.50000000       0.006
   0.15384615  0.00000000  0.50000000       0.006
   0.23076923  0.00000000  0.50000000       0.006
   0.30769231  0.00000000  0.50000000       0.006
   0.38461538  0.00000000  0.50000000       0.006
   0.46153846  0.00000000  0.50000000       0.006
   0.07692308  0.07692308  0.50000000       0.006
   0.15384615  0.07692308  0.50000000       0.012
   0.23076923  0.07692308  0.50000000       0.012
   0.30769231  0.07692308  0.50000000       0.012
   0.38461538  0.07692308  0.50000000       0.012
   0.46153846  0.07692308  0.50000000       0.012
   0.15384615  0.15384615  0.50000000       0.006
   0.23076923  0.15384615  0.50000000       0.012
   0.30769231  0.15384615  0.50000000       0.012
   0.38461538  0.15384615  0.50000000       0.012
   0.46153846  0.15384615  0.50000000       0.012
   0.23076923  0.23076923  0.50000000       0.006
   0.30769231  0.23076923  0.50000000       0.012
   0.38461538  0.23076923  0.50000000       0.012
   0.46153846  0.23076923  0.50000000       0.012
   0.30769231  0.30769231  0.50000000       0.006
   0.38461538  0.30769231  0.50000000       0.012
   0.46153846  0.30769231  0.50000000       0.012
   0.38461538  0.38461538  0.50000000       0.006
   0.46153846  0.38461538  0.50000000       0.012
   0.46153846  0.46153846  0.50000000       0.006
 
 position of ions in fractional coordinates (direct lattice) 
   0.00000000  0.50000000  0.16646542
   0.00000000  0.50000000  0.49943063
   0.00000000  0.50000000  0.83298974
   0.50000000  0.50000000  0.00568073
   0.50000000  0.50000000  0.33965353
   0.50000000  0.50000000  0.66398869
   0.50000000  0.00000000  0.16646542
   0.50000000  0.00000000  0.49943063
   0.50000000  0.00000000  0.83298974
   0.00000000  0.00000000  0.99770395
   0.00000000  0.00000000  0.32904623
   0.00000000  0.00000000  0.66615529
 
 position of ions in cartesian coordinates  (Angst):
   0.00000000  1.87191433  1.90025590
   0.00000000  1.87191433  5.70116005
   0.00000000  1.87191433  9.50884366
   1.87191433  1.87191433  0.06484732
   1.87191433  1.87191433  3.87725338
   1.87191433  1.87191433  7.57964271
   1.87191433  0.00000000  1.90025590
   1.87191433  0.00000000  5.70116005
   1.87191433  0.00000000  9.50884366
   0.00000000  0.00000000 11.38910897
   0.00000000  0.00000000  3.75616768
   0.00000000  0.00000000  7.60437520
 


--------------------------------------------------------------------------------------------------------


 k-point     1 :   0.0000 0.0000 0.0000  plane waves:    4283
 k-point     2 :   0.0769 0.0000 0.0000  plane waves:    4290
 k-point     3 :   0.1538 0.0000 0.0000  plane waves:    4278
 k-point     4 :   0.2308 0.0000 0.0000  plane waves:    4296
 k-point     5 :   0.3077 0.0000 0.0000  plane waves:    4272
 k-point     6 :   0.3846 0.0000 0.0000  plane waves:    4284
 k-point     7 :   0.4615 0.0000 0.0000  plane waves:    4306
 k-point     8 :   0.0769 0.0769 0.0000  plane waves:    4293
 k-point     9 :   0.1538 0.0769 0.0000  plane waves:    4292
 k-point    10 :   0.2308 0.0769 0.0000  plane waves:    4296
 k-point    11 :   0.3077 0.0769 0.0000  plane waves:    4296
 k-point    12 :   0.3846 0.0769 0.0000  plane waves:    4307
 k-point    13 :   0.4615 0.0769 0.0000  plane waves:    4312
 k-point    14 :   0.1538 0.1538 0.0000  plane waves:    4306
 k-point    15 :   0.2308 0.1538 0.0000  plane waves:    4297
 k-point    16 :   0.3077 0.1538 0.0000  plane waves:    4306
 k-point    17 :   0.3846 0.1538 0.0000  plane waves:    4309
 k-point    18 :   0.4615 0.1538 0.0000  plane waves:    4326
 k-point    19 :   0.2308 0.2308 0.0000  plane waves:    4294
 k-point    20 :   0.3077 0.2308 0.0000  plane waves:    4309
 k-point    21 :   0.3846 0.2308 0.0000  plane waves:    4322
 k-point    22 :   0.4615 0.2308 0.0000  plane waves:    4325
 k-point    23 :   0.3077 0.3077 0.0000  plane waves:    4332
 k-point    24 :   0.3846 0.3077 0.0000  plane waves:    4334
 k-point    25 :   0.4615 0.3077 0.0000  plane waves:    4312
 k-point    26 :   0.3846 0.3846 0.0000  plane waves:    4330
 k-point    27 :   0.4615 0.3846 0.0000  plane waves:    4322
 k-point    28 :   0.4615 0.4615 0.0000  plane waves:    4322
 k-point    29 :   0.0000 0.0000 0.2500  plane waves:    4290
 k-point    30 :   0.0769 0.0000 0.2500  plane waves:    4276
 k-point    31 :   0.1538 0.0000 0.2500  plane waves:    4285
 k-point    32 :   0.2308 0.0000 0.2500  plane waves:    4288
 k-point    33 :   0.3077 0.0000 0.2500  plane waves:    4286
 k-point    34 :   0.3846 0.0000 0.2500  plane waves:    4300
 k-point    35 :   0.4615 0.0000 0.2500  plane waves:    4309
 k-point    36 :   0.0769 0.0769 0.2500  plane waves:    4275
 k-point    37 :   0.1538 0.0769 0.2500  plane waves:    4288
 k-point    38 :   0.2308 0.0769 0.2500  plane waves:    4294
 k-point    39 :   0.3077 0.0769 0.2500  plane waves:    4296
 k-point    40 :   0.3846 0.0769 0.2500  plane waves:    4307
 k-point    41 :   0.4615 0.0769 0.2500  plane waves:    4319
 k-point    42 :   0.1538 0.1538 0.2500  plane waves:    4296
 k-point    43 :   0.2308 0.1538 0.2500  plane waves:    4300
 k-point    44 :   0.3077 0.1538 0.2500  plane waves:    4302
 k-point    45 :   0.3846 0.1538 0.2500  plane waves:    4313
 k-point    46 :   0.4615 0.1538 0.2500  plane waves:    4324
 k-point    47 :   0.2308 0.2308 0.2500  plane waves:    4316
 k-point    48 :   0.3077 0.2308 0.2500  plane waves:    4314
 k-point    49 :   0.3846 0.2308 0.2500  plane waves:    4324
 k-point    50 :   0.4615 0.2308 0.2500  plane waves:    4327
 k-point    51 :   0.3077 0.3077 0.2500  plane waves:    4325
 k-point    52 :   0.3846 0.3077 0.2500  plane waves:    4325
 k-point    53 :   0.4615 0.3077 0.2500  plane waves:    4323
 k-point    54 :   0.3846 0.3846 0.2500  plane waves:    4330
 k-point    55 :   0.4615 0.3846 0.2500  plane waves:    4313
 k-point    56 :   0.4615 0.4615 0.2500  plane waves:    4312
 k-point    57 :   0.0000 0.0000 0.5000  plane waves:    4250
 k-point    58 :   0.0769 0.0000 0.5000  plane waves:    4262
 k-point    59 :   0.1538 0.0000 0.5000  plane waves:    4274
 k-point    60 :   0.2308 0.0000 0.5000  plane waves:    4292
 k-point    61 :   0.3077 0.0000 0.5000  plane waves:    4290
 k-point    62 :   0.3846 0.0000 0.5000  plane waves:    4320
 k-point    63 :   0.4615 0.0000 0.5000  plane waves:    4322
 k-point    64 :   0.0769 0.0769 0.5000  plane waves:    4270
 k-point    65 :   0.1538 0.0769 0.5000  plane waves:    4294
 k-point    66 :   0.2308 0.0769 0.5000  plane waves:    4290
 k-point    67 :   0.3077 0.0769 0.5000  plane waves:    4292
 k-point    68 :   0.3846 0.0769 0.5000  plane waves:    4312
 k-point    69 :   0.4615 0.0769 0.5000  plane waves:    4310
 k-point    70 :   0.1538 0.1538 0.5000  plane waves:    4302
 k-point    71 :   0.2308 0.1538 0.5000  plane waves:    4306
 k-point    72 :   0.3077 0.1538 0.5000  plane waves:    4310
 k-point    73 :   0.3846 0.1538 0.5000  plane waves:    4306
 k-point    74 :   0.4615 0.1538 0.5000  plane waves:    4320
 k-point    75 :   0.2308 0.2308 0.5000  plane waves:    4308
 k-point    76 :   0.3077 0.2308 0.5000  plane waves:    4330
 k-point    77 :   0.3846 0.2308 0.5000  plane waves:    4310
 k-point    78 :   0.4615 0.2308 0.5000  plane waves:    4324
 k-point    79 :   0.3077 0.3077 0.5000  plane waves:    4346
 k-point    80 :   0.3846 0.3077 0.5000  plane waves:    4330
 k-point    81 :   0.4615 0.3077 0.5000  plane waves:    4336
 k-point    82 :   0.3846 0.3846 0.5000  plane waves:    4318
 k-point    83 :   0.4615 0.3846 0.5000  plane waves:    4314
 k-point    84 :   0.4615 0.4615 0.5000  plane waves:    4314

 maximum and minimum number of plane-waves per node :      4346     4250

 maximum number of plane-waves:      4346
 maximum index in each direction: 
   IXMAX=    6   IYMAX=    6   IZMAX=   21
   IXMIN=   -7   IYMIN=   -7   IZMIN=  -21


 serial   3D FFT for wavefunctions
 parallel 3D FFT for charge:
    minimum data exchange during FFTs selected (reduces bandwidth)


 total amount of memory used by VASP MPI-rank0   193945. kBytes
=======================================================================

   base      :      30000. kBytes
   nonl-proj :     106119. kBytes
   fftplans  :        955. kBytes
   grid      :       7297. kBytes
   one-center:        373. kBytes
   wavefun   :      49201. kBytes
 
     INWAV:  cpu time      0.0000: real time      0.0000
 Broyden mixing: mesh for mixing (old mesh)
   NGX = 13   NGY = 13   NGZ = 43
  (NGX  = 56   NGY  = 56   NGZ  =180)
  gives a total of   7267 points

 initial charge density was supplied:
 charge density of overlapping atoms calculated
 number of electron     156.0000000 magnetization       8.5290000
 keeping initial charge density in first step


--------------------------------------------------------------------------------------------------------


 Maximum index for augmentation-charges         1076 (set IRDMAX)


--------------------------------------------------------------------------------------------------------


 First call to EWALD:  gamma=   0.326
 Maximum number of real-space cells 4x 4x 2
 Maximum number of reciprocal cells 2x 2x 5

    FEWALD:  cpu time      0.0014: real time      0.0014


--------------------------------------- Ionic step        1  -------------------------------------------




--------------------------------------- Iteration      1(   1)  ---------------------------------------


    POTLOK:  cpu time      0.0272: real time      0.0785
    SETDIJ:  cpu time      0.0060: real time      0.0062
     EDDAV:  cpu time      6.3920: real time      6.4369
 BZINTS: Fermi energy:   22.866492;  156.000000 electrons
         Band energy: 0.482052E+03;  BLOECHL correction:   -0.054163
       DOS:  cpu time      0.1282: real time      0.1298
    --------------------------------------------
      LOOP:  cpu time      6.5539: real time      6.6519

 eigenvalue-minimisations  : 43040
 total energy-change (2. order) : 0.1772480E+04  (-0.8508755E+04)
 number of electron     156.0000000 magnetization       8.5290000
 augmentation part      156.0000000 magnetization       8.5290000

 Free energy of the ion-electron system (eV)
  ---------------------------------------------------
  alpha Z        PSCENC =      1063.68830978
  Ewald energy   TEWEN  =    -17934.65396692
  -Hartree energ DENC   =     -6074.71216770
  -exchange      EXHF   =         0.00000000
  -V(xc)+E(xc)   XCENC  =       655.93660322
  PAW double counting   =     20094.06166559   -20817.99573704
  entropy T*S    EENTRO =         0.00000000
  eigenvalues    EBANDS =       482.05223650
  atomic energy  EATOM  =     24304.10294433
  Solvation  Ediel_sol  =         0.00000000
  ---------------------------------------------------
  free energy    TOTEN  =      1772.47988775 eV

  energy without entropy =     1772.47988775  energy(sigma->0) =     1772.47988775


--------------------------------------------------------------------------------------------------------




--------------------------------------- Iteration      1(   2)  ---------------------------------------


     EDDAV:  cpu time      6.0805: real time      6.1366
 BZINTS: Fermi energy:   11.910983;  156.000000 electrons
         Band energy:-0.128453E+04;  BLOECHL correction:   -0.017635
       DOS:  cpu time      0.1263: real time      0.1273
    --------------------------------------------
      LOOP:  cpu time      6.2062: real time      6.2633

 eigenvalue-minimisations  : 43008
 total energy-change (2. order) :-0.1766586E+04  (-0.1677749E+04)
 number of electron     156.0000000 magnetization       8.5290000
 augmentation part      156.0000000 magnetization       8.5290000

 Free energy of the ion-electron system (eV)
  ---------------------------------------------------
  alpha Z        PSCENC =      1063.68830978
  Ewald energy   TEWEN  =    -17934.65396692
  -Hartree energ DENC   =     -6074.71216770
  -exchange      EXHF   =         0.00000000
  -V(xc)+E(xc)   XCENC  =       655.93660322
  PAW double counting   =     20094.06166559   -20817.99573704
  entropy T*S    EENTRO =         0.00000000
  eigenvalues    EBANDS =     -1284.53388535
  atomic energy  EATOM  =     24304.10294433
  Solvation  Ediel_sol  =         0.00000000
  ---------------------------------------------------
  free energy    TOTEN  =         5.89376590 eV

  energy without entropy =        5.89376590  energy(sigma->0) =        5.89376590


--------------------------------------------------------------------------------------------------------




--------------------------------------- Iteration      1(   3)  ---------------------------------------


     EDDAV:  cpu time      7.2668: real time      7.3186
 BZINTS: Fermi energy:   11.328411;  156.000000 electrons
         Band energy:-0.139372E+04;  BLOECHL correction:   -0.019279
       DOS:  cpu time      0.1257: real time      0.1270
    --------------------------------------------
      LOOP:  cpu time      7.3925: real time      7.4457

 eigenvalue-minimisations  : 50464
 total energy-change (2. order) :-0.1091878E+03  (-0.1077917E+03)
 number of electron     156.0000000 magnetization       8.5290000
 augmentation part      156.0000000 magnetization       8.5290000

 Free energy of the ion-electron system (eV)
  ---------------------------------------------------
  alpha Z        PSCENC =      1063.68830978
  Ewald energy   TEWEN  =    -17934.65396692
  -Hartree energ DENC   =     -6074.71216770
  -exchange      EXHF   =         0.00000000
  -V(xc)+E(xc)   XCENC  =       655.93660322
  PAW double counting   =     20094.06166559   -20817.99573704
  entropy T*S    EENTRO =         0.00000000
  eigenvalues    EBANDS =     -1393.72163867
  atomic energy  EATOM  =     24304.10294433
  Solvation  Ediel_sol  =         0.00000000
  ---------------------------------------------------
  free energy    TOTEN  =      -103.29398742 eV

  energy without entropy =     -103.29398742  energy(sigma->0) =     -103.29398742


--------------------------------------------------------------------------------------------------------




--------------------------------------- Iteration      1(   4)  ---------------------------------------


     EDDAV:  cpu time      6.5258: real time      6.5845
 BZINTS: Fermi energy:   11.323310;  156.000000 electrons
         Band energy:-0.139534E+04;  BLOECHL correction:   -0.019257
       DOS:  cpu time      0.1264: real time      0.1275
    --------------------------------------------
      LOOP:  cpu time      6.6521: real time      6.7119

 eigenvalue-minimisations  : 45952
 total energy-change (2. order) :-0.1613957E+01  (-0.1613652E+01)
 number of electron     156.0000000 magnetization       8.5290000
 augmentation part      156.0000000 magnetization       8.5290000

 Free energy of the ion-electron system (eV)
  ---------------------------------------------------
  alpha Z        PSCENC =      1063.68830978
  Ewald energy   TEWEN  =    -17934.65396692
  -Hartree energ DENC   =     -6074.71216770
  -exchange      EXHF   =         0.00000000
  -V(xc)+E(xc)   XCENC  =       655.93660322
  PAW double counting   =     20094.06166559   -20817.99573704
  entropy T*S    EENTRO =         0.00000000
  eigenvalues    EBANDS =     -1395.33559530
  atomic energy  EATOM  =     24304.10294433
  Solvation  Ediel_sol  =         0.00000000
  ---------------------------------------------------
  free energy    TOTEN  =      -104.90794405 eV

  energy without entropy =     -104.90794405  energy(sigma->0) =     -104.90794405


--------------------------------------------------------------------------------------------------------




--------------------------------------- Iteration      1(   5)  ---------------------------------------


     EDDAV:  cpu time      7.6335: real time      7.7005
 BZINTS: Fermi energy:   11.323263;  156.000000 electrons
         Band energy:-0.139537E+04;  BLOECHL correction:   -0.019257
       DOS:  cpu time      0.1268: real time      0.1278
    CHARGE:  cpu time      0.1620: real time      0.1636
    MIXING:  cpu time      0.1357: real time      0.1366
    --------------------------------------------
      LOOP:  cpu time      8.0580: real time      8.1285

 eigenvalue-minimisations  : 52896
 total energy-change (2. order) :-0.3217612E-01  (-0.3217497E-01)
 number of electron     156.0000192 magnetization       8.1331579
 augmentation part       79.2562833 magnetization       6.0141422

 Broyden mixing:
  rms(total) = 0.37346E+01    rms(broyden)= 0.37339E+01
  rms(prec ) = 0.42784E+01
  weight for this iteration     100.00

 Free energy of the ion-electron system (eV)
  ---------------------------------------------------
  alpha Z        PSCENC =      1063.68830978
  Ewald energy   TEWEN  =    -17934.65396692
  -Hartree energ DENC   =     -6074.71216770
  -exchange      EXHF   =         0.00000000
  -V(xc)+E(xc)   XCENC  =       655.93660322
  PAW double counting   =     20094.06166559   -20817.99573704
  entropy T*S    EENTRO =         0.00000000
  eigenvalues    EBANDS =     -1395.36777142
  atomic energy  EATOM  =     24304.10294433
  Solvation  Ediel_sol  =         0.00000000
  ---------------------------------------------------
  free energy    TOTEN  =      -104.94012017 eV

  energy without entropy =     -104.94012017  energy(sigma->0) =     -104.94012017


--------------------------------------------------------------------------------------------------------




--------------------------------------- Iteration      1(   6)  ---------------------------------------


    POTLOK:  cpu time      0.0477: real time      0.0486
    SETDIJ:  cpu time      0.0083: real time      0.0083
     EDDAV:  cpu time      7.4299: real time      7.4806
 BZINTS: Fermi energy:    8.634690;  156.000000 electrons
         Band energy:-0.183855E+04;  BLOECHL correction:   -0.021331
       DOS:  cpu time      0.1327: real time      0.1336
    CHARGE:  cpu time      0.1540: real time      0.1551
    MIXING:  cpu time      0.0025: real time      0.0038
    --------------------------------------------
      LOOP:  cpu time      7.7750: real time      7.8301

 eigenvalue-minimisations  : 51904
 total energy-change (2. order) :-0.1037173E+02  (-0.1848696E+02)
 number of electron     156.0000223 magnetization       8.0820329
 augmentation part       88.9143200 magnetization       5.8561243

 Broyden mixing:
  rms(total) = 0.72341E+01    rms(broyden)= 0.72339E+01
  rms(prec ) = 0.11072E+02
  weight for this iteration     100.00

 eigenvalues of (default mixing * dielectric matrix)
  average eigenvalue GAMMA=   0.2006
  0.2006

 Free energy of the ion-electron system (eV)
  ---------------------------------------------------
  alpha Z        PSCENC =      1063.68830978
  Ewald energy   TEWEN  =    -17934.65396692
  -Hartree energ DENC   =     -5649.02578699
  -exchange      EXHF   =         0.00000000
  -V(xc)+E(xc)   XCENC  =       638.19215313
  PAW double counting   =     20333.99020319   -21033.05975371
  entropy T*S    EENTRO =         0.00000000
  eigenvalues    EBANDS =     -1838.54595747
  atomic energy  EATOM  =     24304.10294433
  Solvation  Ediel_sol  =         0.00000000
  ---------------------------------------------------
  free energy    TOTEN  =      -115.31185467 eV

  energy without entropy =     -115.31185467  energy(sigma->0) =     -115.31185467


--------------------------------------------------------------------------------------------------------




--------------------------------------- Iteration      1(   7)  ---------------------------------------


    POTLOK:  cpu time      0.0349: real time      0.0459
    SETDIJ:  cpu time      0.0092: real time      0.0093
     EDDAV:  cpu time      7.5781: real time      7.6295
 BZINTS: Fermi energy:    9.279868;  156.000000 electrons
         Band energy:-0.175027E+04;  BLOECHL correction:   -0.015566
       DOS:  cpu time      0.1325: real time      0.1334
    CHARGE:  cpu time      0.1584: real time      0.1595
    MIXING:  cpu time      0.0032: real time      0.0032
    --------------------------------------------
      LOOP:  cpu time      7.9162: real time      7.9808

 eigenvalue-minimisations  : 52768
 total energy-change (2. order) : 0.5194239E+01  (-0.4426846E+02)
 number of electron     156.0000214 magnetization       7.4633661
 augmentation part       86.2372518 magnetization       7.2629095

 Broyden mixing:
  rms(total) = 0.61384E+01    rms(broyden)= 0.61379E+01
  rms(prec ) = 0.98033E+01
  weight for this iteration     100.00

 eigenvalues of (default mixing * dielectric matrix)
  average eigenvalue GAMMA=   0.2578
  0.4061  0.1094

 Free energy of the ion-electron system (eV)
  ---------------------------------------------------
  alpha Z        PSCENC =      1063.68830978
  Ewald energy   TEWEN  =    -17934.65396692
  -Hartree energ DENC   =     -5719.49224919
  -exchange      EXHF   =         0.00000000
  -V(xc)+E(xc)   XCENC  =       639.89752063
  PAW double counting   =     20608.31313641   -21321.69886052
  entropy T*S    EENTRO =         0.00000000
  eigenvalues    EBANDS =     -1750.27445033
  atomic energy  EATOM  =     24304.10294433
  Solvation  Ediel_sol  =         0.00000000
  ---------------------------------------------------
  free energy    TOTEN  =      -110.11761582 eV

  energy without entropy =     -110.11761582  energy(sigma->0) =     -110.11761582


--------------------------------------------------------------------------------------------------------




--------------------------------------- Iteration      1(   8)  ---------------------------------------


    POTLOK:  cpu time      0.0459: real time      0.0467
    SETDIJ:  cpu time      0.0082: real time      0.0083
     EDDAV:  cpu time      7.3704: real time      7.4205
 BZINTS: Fermi energy:    9.787997;  156.000000 electrons
         Band energy:-0.163484E+04;  BLOECHL correction:   -0.021384
       DOS:  cpu time      0.1313: real time      0.1325
    CHARGE:  cpu time      0.1569: real time      0.1578
    MIXING:  cpu time      0.0019: real time      0.0019
    --------------------------------------------
      LOOP:  cpu time      7.7146: real time      7.7677

 eigenvalue-minimisations  : 51552
 total energy-change (2. order) : 0.1319186E+02  (-0.1246702E+02)
 number of electron     156.0000203 magnetization       7.3960873
 augmentation part       83.9025182 magnetization       4.4722835

 Broyden mixing:
  rms(total) = 0.32220E+01    rms(broyden)= 0.32214E+01
  rms(prec ) = 0.45733E+01
  weight for this iteration     100.00

 eigenvalues of (default mixing * dielectric matrix)
  average eigenvalue GAMMA=   0.3838
  0.7405  0.3093  0.1014

 Free energy of the ion-electron system (eV)
  ---------------------------------------------------
  alpha Z        PSCENC =      1063.68830978
  Ewald energy   TEWEN  =    -17934.65396692
  -Hartree energ DENC   =     -5802.99403458
  -exchange      EXHF   =         0.00000000
  -V(xc)+E(xc)   XCENC  =       642.19067097
  PAW double counting   =     21053.41899709   -21787.83369236
  entropy T*S    EENTRO =         0.00000000
  eigenvalues    EBANDS =     -1634.84498139
  atomic energy  EATOM  =     24304.10294433
  Solvation  Ediel_sol  =         0.00000000
  ---------------------------------------------------
  free energy    TOTEN  =       -96.92575309 eV

  energy without entropy =      -96.92575309  energy(sigma->0) =      -96.92575309


--------------------------------------------------------------------------------------------------------




--------------------------------------- Iteration      1(   9)  ---------------------------------------


    POTLOK:  cpu time      0.0337: real time      0.0465
    SETDIJ:  cpu time      0.0079: real time      0.0080
     EDDAV:  cpu time      7.5560: real time      7.6066
 BZINTS: Fermi energy:    9.885094;  156.000000 electrons
         Band energy:-0.164926E+04;  BLOECHL correction:   -0.018406
       DOS:  cpu time      0.1319: real time      0.1331
    CHARGE:  cpu time      0.1595: real time      0.1606
    MIXING:  cpu time      0.0023: real time      0.0023
    --------------------------------------------
      LOOP:  cpu time      7.8913: real time      7.9570

 eigenvalue-minimisations  : 51744
 total energy-change (2. order) :-0.8227366E+01  (-0.1661668E+02)
 number of electron     156.0000202 magnetization       6.8933108
 augmentation part       84.1656773 magnetization       6.6927258

 Broyden mixing:
  rms(total) = 0.58726E+01    rms(broyden)= 0.58722E+01
  rms(prec ) = 0.87321E+01
  weight for this iteration     100.00

 eigenvalues of (default mixing * dielectric matrix)
  average eigenvalue GAMMA=   0.4306
  1.1495  0.3780  0.1007  0.0941

 Free energy of the ion-electron system (eV)
  ---------------------------------------------------
  alpha Z        PSCENC =      1063.68830978
  Ewald energy   TEWEN  =    -17934.65396692
  -Hartree energ DENC   =     -5790.78212608
  -exchange      EXHF   =         0.00000000
  -V(xc)+E(xc)   XCENC  =       641.75857507
  PAW double counting   =     21240.51841825   -21980.52825735
  entropy T*S    EENTRO =         0.00000000
  eigenvalues    EBANDS =     -1649.25701635
  atomic energy  EATOM  =     24304.10294433
  Solvation  Ediel_sol  =         0.00000000
  ---------------------------------------------------
  free energy    TOTEN  =      -105.15311928 eV

  energy without entropy =     -105.15311928  energy(sigma->0) =     -105.15311928


--------------------------------------------------------------------------------------------------------




--------------------------------------- Iteration      1(  10)  ---------------------------------------


    POTLOK:  cpu time      0.0453: real time      0.0461
    SETDIJ:  cpu time      0.0081: real time      0.0082
     EDDAV:  cpu time      7.5649: real time      7.6142
 BZINTS: Fermi energy:    9.325257;  156.000000 electrons
         Band energy:-0.167577E+04;  BLOECHL correction:   -0.011512
       DOS:  cpu time      0.1318: real time      0.1338
    CHARGE:  cpu time      0.1552: real time      0.1560
    MIXING:  cpu time      0.0020: real time      0.0025
    --------------------------------------------
      LOOP:  cpu time      7.9073: real time      7.9608

 eigenvalue-minimisations  : 52256
 total energy-change (2. order) : 0.8790410E+01  (-0.1380396E+02)
 number of electron     156.0000208 magnetization       6.7747716
 augmentation part       85.0049252 magnetization       5.1128923

 Broyden mixing:
  rms(total) = 0.33627E+01    rms(broyden)= 0.33622E+01
  rms(prec ) = 0.52955E+01
  weight for this iteration     100.00

 eigenvalues of (default mixing * dielectric matrix)
  average eigenvalue GAMMA=   0.3702
  1.1598  0.3704  0.1268  0.0919  0.1022

 Free energy of the ion-electron system (eV)
  ---------------------------------------------------
  alpha Z        PSCENC =      1063.68830978
  Ewald energy   TEWEN  =    -17934.65396692
  -Hartree energ DENC   =     -5749.28254234
  -exchange      EXHF   =         0.00000000
  -V(xc)+E(xc)   XCENC  =       639.84680086
  PAW double counting   =     21447.96236052   -22192.26122404
  entropy T*S    EENTRO =         0.00000000
  eigenvalues    EBANDS =     -1675.76539157
  atomic energy  EATOM  =     24304.10294433
  Solvation  Ediel_sol  =         0.00000000
  ---------------------------------------------------
  free energy    TOTEN  =       -96.36270939 eV

  energy without entropy =      -96.36270939  energy(sigma->0) =      -96.36270939


--------------------------------------------------------------------------------------------------------




--------------------------------------- Iteration      1(  11)  ---------------------------------------


    POTLOK:  cpu time      0.0456: real time      0.0466
    SETDIJ:  cpu time      0.0081: real time      0.0081
     EDDAV:  cpu time      7.4124: real time      7.4638
 BZINTS: Fermi energy:    9.355617;  156.000000 electrons
         Band energy:-0.167469E+04;  BLOECHL correction:   -0.021748
       DOS:  cpu time      0.1326: real time      0.1336
    CHARGE:  cpu time      0.1553: real time      0.1562
    MIXING:  cpu time      0.0020: real time      0.0020
    --------------------------------------------
      LOOP:  cpu time      7.7559: real time      7.8103

 eigenvalue-minimisations  : 51712
 total energy-change (2. order) : 0.4546706E+01  (-0.2393795E+01)
 number of electron     156.0000203 magnetization       6.8216215
 augmentation part       84.8386482 magnetization       4.8755463

 Broyden mixing:
  rms(total) = 0.13437E+01    rms(broyden)= 0.13431E+01
  rms(prec ) = 0.15638E+01
  weight for this iteration     100.00

 eigenvalues of (default mixing * dielectric matrix)
  average eigenvalue GAMMA=   0.3654
  1.1897  0.3500  0.3500  0.1119  0.1041  0.0866

 Free energy of the ion-electron system (eV)
  ---------------------------------------------------
  alpha Z        PSCENC =      1063.68830978
  Ewald energy   TEWEN  =    -17934.65396692
  -Hartree energ DENC   =     -5744.34912689
  -exchange      EXHF   =         0.00000000
  -V(xc)+E(xc)   XCENC  =       639.71626951
  PAW double counting   =     21496.47544303   -22242.10440679
  entropy T*S    EENTRO =         0.00000000
  eigenvalues    EBANDS =     -1674.69146899
  atomic energy  EATOM  =     24304.10294433
  Solvation  Ediel_sol  =         0.00000000
  ---------------------------------------------------
  free energy    TOTEN  =       -91.81600295 eV

  energy without entropy =      -91.81600295  energy(sigma->0) =      -91.81600295


--------------------------------------------------------------------------------------------------------




--------------------------------------- Iteration      1(  12)  ---------------------------------------


    POTLOK:  cpu time      0.0450: real time      0.0461
    SETDIJ:  cpu time      0.0075: real time      0.0075
     EDDAV:  cpu time      7.3331: real time      7.3829
 BZINTS: Fermi energy:    9.403590;  156.000000 electrons
         Band energy:-0.166991E+04;  BLOECHL correction:   -0.019081
       DOS:  cpu time      0.1318: real time      0.1329
    CHARGE:  cpu time      0.1601: real time      0.1611
    MIXING:  cpu time      0.0020: real time      0.0020
    --------------------------------------------
      LOOP:  cpu time      7.6795: real time      7.7325

 eigenvalue-minimisations  : 51392
 total energy-change (2. order) :-0.6788020E+00  (-0.2648348E+00)
 number of electron     156.0000201 magnetization       6.9265148
 augmentation part       84.7293073 magnetization       4.7948513

 Broyden mixing:
  rms(total) = 0.10169E+01    rms(broyden)= 0.10168E+01
  rms(prec ) = 0.11544E+01
  weight for this iteration     100.00

 eigenvalues of (default mixing * dielectric matrix)
  average eigenvalue GAMMA=   0.3834
  1.2032  0.4309  0.4309  0.3242  0.1130  0.1015  0.0802

 Free energy of the ion-electron system (eV)
  ---------------------------------------------------
  alpha Z        PSCENC =      1063.68830978
  Ewald energy   TEWEN  =    -17934.65396692
  -Hartree energ DENC   =     -5747.93821701
  -exchange      EXHF   =         0.00000000
  -V(xc)+E(xc)   XCENC  =       640.47236701
  PAW double counting   =     21556.08010255   -22304.33995531
  entropy T*S    EENTRO =         0.00000000
  eigenvalues    EBANDS =     -1669.90638932
  atomic energy  EATOM  =     24304.10294433
  Solvation  Ediel_sol  =         0.00000000
  ---------------------------------------------------
  free energy    TOTEN  =       -92.49480491 eV

  energy without entropy =      -92.49480491  energy(sigma->0) =      -92.49480491


--------------------------------------------------------------------------------------------------------




--------------------------------------- Iteration      1(  13)  ---------------------------------------


    POTLOK:  cpu time      0.0453: real time      0.0463
    SETDIJ:  cpu time      0.0077: real time      0.0078
     EDDAV:  cpu time      7.4639: real time      7.5162
 BZINTS: Fermi energy:    9.404491;  156.000000 electrons
         Band energy:-0.167211E+04;  BLOECHL correction:   -0.019432
       DOS:  cpu time      0.1328: real time      0.1337
    CHARGE:  cpu time      0.1572: real time      0.1582
    MIXING:  cpu time      0.0020: real time      0.0020
    --------------------------------------------
      LOOP:  cpu time      7.8089: real time      7.8641

 eigenvalue-minimisations  : 51552
 total energy-change (2. order) :-0.2488653E+00  (-0.1410065E+00)
 number of electron     156.0000201 magnetization       7.0875358
 augmentation part       84.7864653 magnetization       5.1328603

 Broyden mixing:
  rms(total) = 0.10467E+01    rms(broyden)= 0.10466E+01
  rms(prec ) = 0.12555E+01
  weight for this iteration     100.00

 eigenvalues of (default mixing * dielectric matrix)
  average eigenvalue GAMMA=   0.4120
  1.2250  0.6399  0.6399  0.3360  0.0814  0.1056  0.1056  0.1622

 Free energy of the ion-electron system (eV)
  ---------------------------------------------------
  alpha Z        PSCENC =      1063.68830978
  Ewald energy   TEWEN  =    -17934.65396692
  -Hartree energ DENC   =     -5745.61003982
  -exchange      EXHF   =         0.00000000
  -V(xc)+E(xc)   XCENC  =       640.69363535
  PAW double counting   =     21579.88892605   -22328.74433952
  entropy T*S    EENTRO =         0.00000000
  eigenvalues    EBANDS =     -1672.10913945
  atomic energy  EATOM  =     24304.10294433
  Solvation  Ediel_sol  =         0.00000000
  ---------------------------------------------------
  free energy    TOTEN  =       -92.74367022 eV

  energy without entropy =      -92.74367022  energy(sigma->0) =      -92.74367022


--------------------------------------------------------------------------------------------------------




--------------------------------------- Iteration      1(  14)  ---------------------------------------


    POTLOK:  cpu time      0.0446: real time      0.0455
    SETDIJ:  cpu time      0.0082: real time      0.0083
     EDDAV:  cpu time      7.5496: real time      7.6005
[...]
    113      23.4867      0.00000
    114      23.9276      0.00000
    115      23.9812      0.00000
    116      24.2063      0.00000
    117      24.3648      0.00000
    118      25.0793      0.00000
    119      25.2300      0.00000
    120      26.8313      0.00000
    121      26.8651      0.00000
    122      26.9118      0.00000
    123      27.3228      0.00000
    124      27.9148      0.00000
    125      28.2274      0.00000
    126      28.4197      0.00000
    127      28.6600      0.00000
    128      29.1407      0.00000


--------------------------------------------------------------------------------------------------------


 soft charge-density along one line, spin component           1
         0         1         2         3         4         5         6         7         8         9
 total charge-density along one line
 
 soft charge-density along one line, spin component           2
         0         1         2         3         4         5         6         7         8         9
 total charge-density along one line
 
 pseudopotential strength for first ion, spin component:           1
-43.185  -0.000  -0.000   6.859   0.000   0.000   0.000   0.003
 -0.000 -43.221   0.000   0.000   6.873  -0.000  -0.000   0.000
 -0.000   0.000 -43.150   0.000  -0.000   6.844   0.000  -0.000
  6.859   0.000   0.000   5.856   0.000   0.000  -0.000  -0.001
  0.000   6.873  -0.000   0.000   5.851  -0.000   0.000  -0.000
  0.000  -0.000   6.844   0.000  -0.000   5.859  -0.000   0.000
  0.000  -0.000   0.000  -0.000   0.000  -0.000  -0.659   0.000
  0.003   0.000  -0.000  -0.001  -0.000   0.000   0.000  -0.661
 -0.000   0.004  -0.000   0.000  -0.000  -0.000   0.000  -0.000
 -0.000   0.000  -0.004   0.000  -0.000   0.004  -0.000  -0.000
 -0.000  -0.004   0.000   0.000   0.003  -0.000   0.000   0.000
 -0.000  -0.000   0.000  -0.000   0.000  -0.000  -1.196   0.000
  0.003   0.000  -0.000  -0.001  -0.000   0.000   0.000  -1.198
 -0.000   0.004  -0.000   0.000  -0.000   0.000   0.000  -0.000
 -0.000   0.000  -0.004   0.000  -0.000   0.004  -0.000  -0.000
 -0.000  -0.004   0.000   0.000   0.003  -0.000   0.000   0.000
 -0.000   0.001  -0.000  -0.000   0.001  -0.000   0.000   0.000
 -0.000   0.004  -0.000  -0.000   0.004  -0.000   0.000   0.000
 pseudopotential strength for first ion, spin component:           2
-45.413  -0.000  -0.000   7.796   0.000   0.000  -0.000   0.006
 -0.000 -45.485   0.000   0.000   7.824  -0.000  -0.000   0.000
 -0.000   0.000 -45.298   0.000  -0.000   7.749   0.000  -0.000
  7.796   0.000   0.000   5.589   0.000   0.000   0.000  -0.003
  0.000   7.824  -0.000   0.000   5.583  -0.000   0.000  -0.000
  0.000  -0.000   7.749   0.000  -0.000   5.599  -0.000   0.000
 -0.000  -0.000   0.000   0.000   0.000  -0.000  -2.372   0.000
  0.006   0.000  -0.000  -0.003  -0.000   0.000   0.000  -2.546
 -0.000   0.015  -0.000   0.000  -0.007  -0.000   0.000  -0.000
 -0.000  -0.000   0.026   0.000   0.000  -0.012  -0.000  -0.000
 -0.000   0.010  -0.000   0.000  -0.004   0.000   0.000   0.000
 -0.000  -0.000   0.000   0.000   0.000  -0.000  -2.881   0.000
  0.006   0.000  -0.000  -0.003  -0.000   0.000   0.000  -3.052
 -0.000   0.015  -0.000   0.000  -0.007  -0.000   0.000  -0.000
 -0.000   0.000   0.025   0.000   0.000  -0.011  -0.000  -0.000
 -0.000   0.010   0.000   0.000  -0.004  -0.000   0.000   0.000
 -0.000  -0.005   0.000  -0.000   0.004   0.000   0.000   0.000
 -0.000  -0.014   0.000  -0.000   0.009   0.000   0.000   0.000
 total augmentation occupancy for first ion, spin component:           1
  1.992   0.000   0.000  -0.028  -0.000   0.000   0.000  -0.007   0.000  -0.000   0.000   0.000   0.007   0.000   0.000   0.000
  0.000   1.992  -0.000   0.000  -0.028   0.000  -0.000   0.000  -0.005   0.000   0.003   0.000   0.000   0.004   0.000  -0.003
  0.000  -0.000   1.992   0.000   0.000  -0.027  -0.000   0.000   0.000  -0.001   0.000  -0.000   0.000   0.000   0.001  -0.000
 -0.028   0.000   0.000   0.176   0.000   0.000   0.000  -0.020   0.000   0.000   0.000   0.000   0.026   0.000   0.000   0.000
 -0.000  -0.028   0.000   0.000   0.176   0.000  -0.000  -0.000  -0.011   0.000   0.019  -0.000   0.000   0.003   0.000  -0.030
  0.000   0.000  -0.027   0.000   0.000   0.156  -0.000  -0.000  -0.000   0.015  -0.000   0.000  -0.000   0.000  -0.039  -0.000
  0.000  -0.000  -0.000   0.000  -0.000  -0.000   2.828   0.000   0.000   0.000   0.000  -1.487  -0.000   0.000   0.000   0.000
 -0.007   0.000   0.000  -0.020  -0.000  -0.000   0.000   2.946  -0.000   0.000   0.000  -0.000  -1.924   0.000   0.000   0.000
  0.000  -0.005   0.000   0.000  -0.011  -0.000   0.000  -0.000   3.327   0.000   0.219   0.000   0.000  -1.859   0.000  -0.124
 -0.000   0.000  -0.001   0.000   0.000   0.015   0.000   0.000   0.000   2.673   0.000   0.000   0.000   0.000  -1.394  -0.000
  0.000   0.003   0.000   0.000   0.019  -0.000   0.000   0.000   0.219   0.000   2.996  -0.000   0.000  -0.124   0.000  -1.661
  0.000   0.000  -0.000   0.000  -0.000   0.000  -1.487  -0.000   0.000   0.000  -0.000   1.589  -0.000   0.000   0.000   0.000
  0.007   0.000   0.000   0.026   0.000  -0.000  -0.000  -1.924   0.000   0.000   0.000  -0.000   2.147   0.000   0.000   0.000
  0.000   0.004   0.000   0.000   0.003   0.000   0.000   0.000  -1.859   0.000  -0.124   0.000   0.000   1.698   0.000   0.044
  0.000   0.000   0.001   0.000   0.000  -0.039   0.000   0.000   0.000  -1.394   0.000   0.000   0.000   0.000   1.491  -0.000
  0.000  -0.003  -0.000   0.000  -0.030  -0.000   0.000   0.000  -0.124  -0.000  -1.661   0.000   0.000   0.044  -0.000   1.599
  0.000  -0.000   0.000   0.000  -0.001  -0.000   0.000   0.000  -0.114   0.000   0.181   0.000   0.000   0.071   0.000  -0.134
  0.000   0.001  -0.000   0.000   0.000   0.000   0.000   0.000   0.012  -0.000  -0.011   0.000   0.000  -0.006   0.000   0.007
 total augmentation occupancy for first ion, spin component:           2
  0.002  -0.000   0.000   0.008   0.000   0.000   0.000   0.002   0.000   0.000   0.000   0.000  -0.002   0.000   0.000   0.000
 -0.000   0.002   0.000  -0.000   0.008  -0.000   0.000   0.000   0.005   0.000   0.004   0.000   0.000  -0.005   0.000  -0.005
  0.000   0.000   0.002   0.000  -0.000   0.009   0.000  -0.000   0.000   0.011   0.000  -0.000   0.000  -0.000  -0.011  -0.000
  0.008  -0.000   0.000  -0.007   0.000   0.000   0.000   0.022   0.000   0.000   0.000   0.000  -0.018   0.000   0.000   0.000
  0.000   0.008  -0.000   0.000  -0.002   0.000  -0.000   0.000  -0.006   0.000  -0.037   0.000   0.000  -0.008   0.000   0.014
  0.000  -0.000   0.009   0.000   0.000  -0.002   0.000   0.000   0.000  -0.064   0.000   0.000  -0.000   0.000   0.012   0.000
  0.000   0.000   0.000   0.000  -0.000   0.000  -2.216   0.000   0.000   0.000   0.000   1.009  -0.000   0.000   0.000  -0.000
  0.002   0.000  -0.000   0.022   0.000   0.000   0.000  -2.153   0.000   0.000   0.000  -0.000   0.770  -0.000   0.000  -0.000
  0.000   0.005   0.000   0.000  -0.006   0.000   0.000   0.000  -2.682   0.000  -0.087   0.000  -0.000   1.189   0.000   0.079
  0.000   0.000   0.011   0.000   0.000  -0.064   0.000   0.000   0.000  -2.006   0.000   0.000   0.000   0.000   0.758   0.000
  0.000   0.004   0.000   0.000  -0.037   0.000   0.000   0.000  -0.087   0.000  -2.412   0.000   0.000   0.079   0.000   0.931
  0.000   0.000  -0.000   0.000   0.000   0.000   1.009  -0.000   0.000   0.000   0.000  -0.283   0.000   0.000   0.000  -0.000
 -0.002   0.000   0.000  -0.018   0.000  -0.000  -0.000   0.770  -0.000   0.000   0.000   0.000  -0.021   0.000   0.000   0.000
  0.000  -0.005  -0.000   0.000  -0.008   0.000   0.000  -0.000   1.189   0.000   0.079   0.000   0.000  -0.410   0.000  -0.083
  0.000   0.000  -0.011   0.000   0.000   0.012   0.000   0.000   0.000   0.758   0.000   0.000   0.000   0.000  -0.066   0.000
  0.000  -0.005  -0.000   0.000   0.014   0.000  -0.000  -0.000   0.079   0.000   0.931  -0.000   0.000  -0.083   0.000  -0.166
  0.000  -0.001   0.000   0.000  -0.018  -0.000  -0.000   0.000   0.011  -0.000  -0.049   0.000   0.000  -0.024   0.000   0.042
  0.000   0.000  -0.000   0.000  -0.000   0.000   0.000   0.000  -0.008   0.000   0.005   0.000   0.000   0.002   0.000  -0.001


------------------------ aborting loop because EDIFF is reached ----------------------------------------





 total charge

# of ion       s       p       d       tot
------------------------------------------
    1        0.344   6.314   6.007  12.665
    2        0.341   6.309   6.023  12.674
    3        0.340   6.308   6.000  12.648
    4        0.347   6.318   5.993  12.658
    5        0.345   6.314   6.001  12.661
    6        0.341   6.314   6.000  12.655
    7        0.344   6.314   6.007  12.665
    8        0.341   6.309   6.023  12.674
    9        0.340   6.308   6.000  12.648
   10        0.755   0.660   8.019   9.435
   11        0.759   0.655   8.024   9.438
   12        0.746   0.677   8.018   9.440
--------------------------------------------------
tot          5.344  58.800  78.117 142.260



 magnetization (x)

# of ion       s       p       d       tot
------------------------------------------
    1       -0.014  -0.006  -2.606  -2.626
    2        0.002  -0.012   2.688   2.678
    3        0.010   0.002   2.651   2.664
    4       -0.018  -0.021  -2.632  -2.670
    5        0.015   0.021   2.609   2.645
    6        0.003  -0.014   2.817   2.805
    7       -0.014  -0.006  -2.606  -2.626
    8        0.002  -0.012   2.688   2.678
    9        0.010   0.002   2.651   2.664
   10        0.008   0.015  -0.068  -0.045
   11       -0.008  -0.016   0.075   0.051
   12       -0.040  -0.097   0.411   0.273
--------------------------------------------------
tot         -0.043  -0.144   8.679   8.491
 
    CHARGE:  cpu time      0.1534: real time      0.1546
    FORLOC:  cpu time      0.0019: real time      0.0025
    FORNL :  cpu time      0.7494: real time      0.7531
    STRESS:  cpu time      4.5416: real time      4.5788
    FORCOR:  cpu time      0.0219: real time      0.0220
    FORHAR:  cpu time      0.0028: real time      0.0028
    MIXING:  cpu time      0.0154: real time      0.0155
    OFIELD:  cpu time      0.0014: real time      0.0014

  FORCE on cell =-STRESS in cart. coord.  units (eV):
  Direction    XX          YY          ZZ          XY          YZ          ZX
  --------------------------------------------------------------------------------------
  Alpha Z  1063.68831  1063.68831  1063.68831
  Ewald   -5967.89868 -5967.89868 -5998.88054     0.00000     0.00000    -0.00000
  Hartree  1917.77821  1917.77821  1890.42037    -0.00000    -0.00000    -0.00000
  E(xc)    -942.91325  -942.91325  -942.85594    -0.00000    -0.00000     0.00000
  Local    1011.93565  1011.93565  1077.30129    -0.00000     0.00000    -0.00000
  n-local  -218.33308  -232.88405  -226.43590    13.92351     0.12461     0.15994
  augment  1441.18017  1441.18017  1437.00022     0.00000     0.00000     0.00000
  Kinetic  1703.10390  1688.47989  1693.64825     2.64115     0.03750    -0.05436
  Fock        0.00000     0.00000     0.00000     0.00000     0.00000     0.00000
  -------------------------------------------------------------------------------------
  Total      -6.04625    -6.04625    -6.11393     0.00000     0.00000     0.00000
  in kB     -60.54479   -60.54479   -61.22255     0.00000     0.00000     0.00000
  external pressure =      -60.77 kB  Pullay stress =        0.00 kB


 VOLUME and BASIS-vectors are now :
 -----------------------------------------------------------------------------
  energy-cutoff  :      520.00
  volume of cell :      160.00
      direct lattice vectors                 reciprocal lattice vectors
     3.743828652  0.000000000  0.000000000     0.267106241  0.000000000  0.000000000
     0.000000000  3.743828652  0.000000000     0.000000000  0.267106241  0.000000000
     0.000000000  0.000000000 11.415319078     0.000000000  0.000000000  0.087601581

  length of vectors
     3.743828652  3.743828652 11.415319078     0.267106241  0.267106241  0.087601581


 FORCES acting on ions
    electron-ion (+dipol)            ewald-force                    non-local-force                 convergence-correction
 -----------------------------------------------------------------------------------------------
   -.728E-13 0.955E-12 -.266E+01   0.224E-13 -.623E-15 0.167E+01   -.145E-18 0.464E-18 0.975E+00   0.629E-13 -.717E-14 0.715E-02
   -.688E-13 0.256E-12 -.176E+02   -.259E-14 0.294E-13 0.179E+02   -.329E-19 -.584E-18 -.324E+00   0.582E-13 -.358E-14 -.677E-02
   -.683E-13 0.267E-11 -.140E+02   0.747E-14 -.153E-13 0.127E+02   -.592E-18 -.293E-17 0.123E+01   0.614E-13 -.253E-13 -.135E-02
   0.111E-11 0.675E-11 0.717E+02   0.424E-14 -.396E-13 -.691E+02   -.344E-20 -.322E-18 -.265E+01   -.202E-12 -.237E-13 0.118E-01
   0.113E-11 -.406E-11 0.676E+02   -.538E-13 0.539E-15 -.652E+02   0.151E-18 -.736E-18 -.243E+01   -.212E-12 -.541E-14 0.551E-02
   0.113E-11 0.764E-11 -.577E+02   0.264E-14 -.217E-13 0.579E+02   -.556E-20 0.844E-19 -.241E+00   -.214E-12 -.108E-13 -.166E-01
   0.112E-11 0.378E-12 -.266E+01   0.119E-14 -.977E-14 0.167E+01   0.258E-18 0.264E-18 0.975E+00   -.202E-12 0.961E-14 0.715E-02
   0.110E-11 -.370E-12 -.176E+02   -.163E-13 -.582E-14 0.179E+02   -.123E-18 -.232E-19 -.324E+00   -.204E-12 0.335E-13 -.677E-02
   0.111E-11 -.344E-12 -.140E+02   0.794E-14 -.664E-14 0.127E+02   -.103E-17 -.922E-19 0.123E+01   -.228E-12 0.416E-13 -.135E-02
   -.403E-13 -.805E-13 0.149E+02   -.157E-13 0.387E-13 -.153E+02   -.173E-19 -.179E-18 0.402E+00   0.664E-13 0.495E-14 0.841E-02
   -.432E-13 -.539E-13 0.249E+00   0.301E-13 -.201E-13 -.505E+00   -.630E-18 -.134E-17 0.256E+00   0.711E-13 -.134E-14 0.434E-02
   -.365E-13 -.469E-14 -.278E+02   0.476E-14 0.182E-13 0.276E+02   0.113E-18 -.118E-18 0.250E+00   0.650E-13 0.236E-14 -.122E-01
 -----------------------------------------------------------------------------------------------
   0.637E-11 0.137E-10 0.662E+00   -.755E-14 -.328E-13 -.210E-12   -.206E-17 -.551E-17 -.661E+00   -.878E-12 0.148E-13 -.747E-03
 
 
 POSITION                                       TOTAL-FORCE (eV/Angst)
 -----------------------------------------------------------------------------------
      0.00000      1.87191      1.90026         0.000000      0.000000      0.000155
      0.00000      1.87191      5.70116         0.000000     -0.000000     -0.008541
      0.00000      1.87191      9.50884         0.000000     -0.000000     -0.006156
      1.87191      1.87191      0.06485         0.000000     -0.000000      0.025479
      1.87191      1.87191      3.87725        -0.000000     -0.000000     -0.004745
      1.87191      1.87191      7.57964         0.000000      0.000000     -0.005985
      1.87191      0.00000      1.90026         0.000000      0.000000      0.000155
      1.87191      0.00000      5.70116        -0.000000      0.000000     -0.008541
      1.87191      0.00000      9.50884        -0.000000     -0.000000     -0.006156
      0.00000      0.00000     11.38911         0.000000      0.000000      0.007448
      0.00000      0.00000      3.75617         0.000000      0.000000      0.004785
      0.00000      0.00000      7.60438         0.000000      0.000000      0.002101
 -----------------------------------------------------------------------------------
    total drift:                                0.000000      0.000000      0.000092


--------------------------------------------------------------------------------------------------------



  FREE ENERGIE OF THE ION-ELECTRON SYSTEM (eV)
  ---------------------------------------------------
  free  energy   TOTEN  =       -93.24314917 eV

  energy  without entropy=      -93.24314917  energy(sigma->0) =      -93.24314917
 


--------------------------------------------------------------------------------------------------------


    POTLOK:  cpu time      0.0380: real time      0.0387


--------------------------------------------------------------------------------------------------------


     LOOP+:  cpu time    233.2102: real time    235.2231
 -----------------------------------------------------------------------------
|                                                                             |
|           W    W    AA    RRRRR   N    N  II  N    N   GGGG   !!!           |
|           W    W   A  A   R    R  NN   N  II  NN   N  G    G  !!!           |
|           W    W  A    A  R    R  N N  N  II  N N  N  G       !!!           |
|           W WW W  AAAAAA  RRRRR   N  N N  II  N  N N  G  GGG   !            |
|           WW  WW  A    A  R   R   N   NN  II  N   NN  G    G                |
|           W    W  A    A  R    R  N    N  II  N    N   GGGG   !!!           |
|                                                                             |
|     Tetrahedron method does not include variations of the Fermi             |
|     occupations, so forces and stress will be inaccurate. We suggest        |
|     using a different smearing scheme ISMEAR = 1 or 2 for metals in         |
|     relaxations.                                                            |
|                                                                             |
 -----------------------------------------------------------------------------

    4ORBIT:  cpu time      0.0000: real time      0.0000



 total charge

# of ion       s       p       d       tot
------------------------------------------
    1        0.344   6.314   6.007  12.665
    2        0.341   6.309   6.023  12.674
    3        0.340   6.308   6.000  12.648
    4        0.347   6.318   5.993  12.658
    5        0.345   6.314   6.001  12.661
    6        0.341   6.314   6.000  12.655
    7        0.344   6.314   6.007  12.665
    8        0.341   6.309   6.023  12.674
    9        0.340   6.308   6.000  12.648
   10        0.755   0.660   8.019   9.435
   11        0.759   0.655   8.024   9.438
   12        0.746   0.677   8.018   9.440
--------------------------------------------------
tot          5.344  58.800  78.117 142.260



 magnetization (x)

# of ion       s       p       d       tot
------------------------------------------
    1       -0.014  -0.006  -2.606  -2.626
    2        0.002  -0.012   2.688   2.678
    3        0.010   0.002   2.651   2.664
    4       -0.018  -0.021  -2.632  -2.670
    5        0.015   0.021   2.609   2.645
    6        0.003  -0.014   2.817   2.805
    7       -0.014  -0.006  -2.606  -2.626
    8        0.002  -0.012   2.688   2.678
    9        0.010   0.002   2.651   2.664
   10        0.008   0.015  -0.068  -0.045
   11       -0.008  -0.016   0.075   0.051
   12       -0.040  -0.097   0.411   0.273
--------------------------------------------------
tot         -0.043  -0.144   8.679   8.491
 
 BZINTS: Fermi energy:    9.498496;  156.000000 electrons
         Band energy:-0.168335E+04;  BLOECHL correction:   -0.020587

 total amount of memory used by VASP MPI-rank0   193945. kBytes
=======================================================================

   base      :      30000. kBytes
   nonl-proj :     106119. kBytes
   fftplans  :        955. kBytes
   grid      :       7297. kBytes
   one-center:        373. kBytes
   wavefun   :      49201. kBytes
 
  
  
 General timing and accounting informations for this job:
 ========================================================
  
                  Total CPU time used (sec):      252.688
                            User time (sec):      244.455
                          System time (sec):        8.233
                         Elapsed time (sec):      260.956
  
                   Maximum memory used (kb):      933652.
                   Average memory used (kb):          N/A
  
                          Minor page faults:       215819
                          Major page faults:          140
                 Voluntary context switches:         7481
