       N       E                     dE             d eps       ncg     rms          ort
DAV:   1     0.173783141986E+04    0.17378E+04   -0.93439E+04  8064   0.257E+03
DAV:   2     0.728719690859E+01   -0.17305E+04   -0.16988E+04  8064   0.609E+02
DAV:   3    -0.102699384414E+03   -0.10999E+03   -0.10885E+03  8064   0.161E+02
DAV:   4    -0.104870994161E+03   -0.21716E+01   -0.21699E+01  8064   0.244E+01
DAV:   5    -0.104917951237E+03   -0.46957E-01   -0.46955E-01  8064   0.354E+00
SDA:   6    -0.572209235412E+02    0.47697E+02   -0.46955E-01  8064   0.357E+03 0.000E+00
CGA:   7    -0.837533753304E+02   -0.26532E+02   -0.24352E+02  8064   0.106E+03 0.298E+02
CGA:   8    -0.876697572117E+02   -0.39164E+01   -0.40506E+01  8064   0.595E+02-0.134E+01
CGA:   9    -0.899549027214E+02   -0.22851E+01   -0.23428E+01  8064   0.122E+02 0.242E+00
CGA:  10    -0.915696356784E+02   -0.16147E+01   -0.16115E+01  8064   0.529E+01-0.131E-02
CGA:  11    -0.917741616710E+02   -0.20453E+00   -0.20950E+00  8064   0.460E+01-0.102E+00
CGA:  12    -0.920258425891E+02   -0.25168E+00   -0.26184E+00  8064   0.324E+01-0.117E+00
CGA:  13    -0.924458385970E+02   -0.42000E+00   -0.42149E+00  8064   0.150E+01 0.118E-01
CGA:  14    -0.925701456645E+02   -0.12431E+00   -0.12543E+00  8064   0.256E+01-0.619E-02
CGA:  15    -0.926569026809E+02   -0.86757E-01   -0.91001E-01  8064   0.820E+00-0.104E+00
CGA:  16    -0.927290119243E+02   -0.72109E-01   -0.71882E-01  8064   0.697E+00 0.454E-03
CGA:  17    -0.927646937732E+02   -0.35682E-01   -0.36077E-01  8064   0.850E+00-0.575E-02
CGA:  18    -0.928026860450E+02   -0.37992E-01   -0.39228E-01  8064   0.135E+00-0.203E-01
CGA:  19    -0.928299733905E+02   -0.27287E-01   -0.27460E-01  8064   0.363E+00-0.176E-02
CGA:  20    -0.928436993138E+02   -0.13726E-01   -0.14139E-01  8064   0.242E+00-0.794E-02
CGA:  21    -0.928543353077E+02   -0.10636E-01   -0.10997E-01  8064   0.469E-01-0.542E-02
CGA:  22    -0.928650206659E+02   -0.10685E-01   -0.10658E-01  8064   0.122E+00 0.283E-03
CGA:  23    -0.928692741143E+02   -0.42534E-02   -0.43565E-02  8064   0.733E-01-0.227E-02
CGA:  24    -0.928749434643E+02   -0.56694E-02   -0.57199E-02  8064   0.414E-01-0.202E-03
CGA:  25    -0.928789443000E+02   -0.40008E-02   -0.40014E-02  8064   0.580E-01-0.531E-04
CGA:  26    -0.928811292201E+02   -0.21849E-02   -0.21987E-02  8064   0.294E-01-0.418E-03
CGA:  27    -0.928859367200E+02   -0.48075E-02   -0.47962E-02  8064   0.371E-01 0.174E-03
CGA:  28    -0.928871624227E+02   -0.12257E-02   -0.12301E-02  8064   0.162E-01-0.185E-03
CGA:  29    -0.928883564820E+02   -0.11941E-02   -0.11923E-02  8064   0.104E-01-0.297E-04
CGA:  30    -0.928896678051E+02   -0.13113E-02   -0.13115E-02  8064   0.171E-01-0.403E-04
CGA:  31    -0.928901731570E+02   -0.50535E-03   -0.50373E-03  8064   0.385E-02-0.717E-04
CGA:  32    -0.928906578232E+02   -0.48467E-03   -0.48548E-03  8064   0.352E-02-0.607E-04
CGA:  33    -0.928908644871E+02   -0.20666E-03   -0.20548E-03  8064   0.405E-02-0.201E-04
CGA:  34    -0.928910533628E+02   -0.18888E-03   -0.18810E-03  8064   0.153E-02-0.167E-04
CGA:  35    -0.928912202023E+02   -0.16684E-03   -0.16684E-03  8064   0.121E-02 0.975E-06
CGA:  36    -0.928912629340E+02   -0.42732E-04   -0.42758E-04  8064   0.719E-03 0.474E-05
SDA:  37    -0.928913597989E+02   -0.96865E-04   -0.96628E-04  8064   0.802E-03 0.955E-05
CGA:  38    -0.928913843606E+02   -0.24562E-04   -0.24590E-04  8064   0.350E-03 0.331E-05
CGA:  39    -0.928914030274E+02   -0.18667E-04   -0.18761E-04  8064   0.237E-03 0.361E-05
CGA:  40    -0.928914439956E+02   -0.40968E-04   -0.40305E-04  8064   0.417E-03 0.111E-04
CGA:  41    -0.928914592537E+02   -0.15258E-04   -0.15654E-04  8064   0.158E-03 0.586E-05
CGA:  42    -0.928914786192E+02   -0.19366E-04   -0.19142E-04  8064   0.486E-04 0.126E-04
CGA:  43    -0.928914809299E+02   -0.23107E-05   -0.23890E-05  8064   0.460E-04 0.232E-05
CGA:  44    -0.928914841227E+02   -0.31928E-05   -0.32473E-05  8064   0.410E-04 0.266E-05
CGA:  45    -0.928914889014E+02   -0.47787E-05   -0.47536E-05  8064   0.811E-04 0.284E-05
CGA:  46    -0.928914922800E+02   -0.33786E-05   -0.34719E-05  8064   0.618E-05 0.196E-05
CGA:  47    -0.928914929045E+02   -0.62446E-06   -0.62325E-06  8064   0.911E-05 0.972E-06
   1 F= -.92891493E+02 E0= -.92894513E+02  d E =-.928915E+02  mag=     1.8917
