 vasp.6.4.3 19Mar24 (build Mar 26 2024 14:05:37) complex                        
  
 executed on             LinuxIFC date 2024.12.16  15:30:13
 running  128 mpi-ranks, on    1 nodes
 distrk:  each k-point on   32 cores,    4 groups
 distr:  one band on NCORE=   1 cores,   32 groups


--------------------------------------------------------------------------------------------------------


 INCAR:
   ALGO = All
   EDIFF = 1e-06
   EDIFFG = -0.01
   ENCUT = 520
   GGA = Pe
   IBRION = 2
   ISIF = 4
   ISMEAR = 1
   ISPIN = 2
   KPAR = 4
   LCHARG = True
   LORBIT = 11
   LREAL = False
   LWAVE = False
   MAGMOM = 1*-2.331 1*2.215 1*2.213 1*-2.325 1*-2.326 1*2.361 1*-2.331 1*2.215 1*2.213 2*-0.087 1*0.184
   NELM = 200
   NSW = 100
   PREC = Accurate
   SIGMA = 0.2

 POTCAR:    PAW_PBE Fe_pv 02Aug2007               
 POTCAR:    PAW_PBE Pt 04Feb2005                  
 -----------------------------------------------------------------------------
|                                                                             |
|           W    W    AA    RRRRR   N    N  II  N    N   GGGG   !!!           |
|           W    W   A  A   R    R  NN   N  II  NN   N  G    G  !!!           |
|           W    W  A    A  R    R  N N  N  II  N N  N  G       !!!           |
|           W WW W  AAAAAA  RRRRR   N  N N  II  N  N N  G  GGG   !            |
|           WW  WW  A    A  R   R   N   NN  II  N   NN  G    G                |
|           W    W  A    A  R    R  N    N  II  N    N   GGGG   !!!           |
|                                                                             |
|     For optimal performance we recommend to set                             |
|       NCORE = 2 up to number-of-cores-per-socket                            |
|     NCORE specifies how many cores store one orbital (NPAR=cpu/NCORE).      |
|     This setting can greatly improve the performance of VASP for DFT.       |
|     The default, NCORE=1 might be grossly inefficient on modern             |
|     multi-core architectures or massively parallel machines. Do your        |
|     own testing! More info at https://www.vasp.at/wiki/index.php/NCORE      |
|     Unfortunately you need to use the default for GW and RPA                |
|     calculations (for HF NCORE is supported but not extensively tested      |
|     yet).                                                                   |
|                                                                             |
 -----------------------------------------------------------------------------

 POTCAR:    PAW_PBE Fe_pv 02Aug2007               
   SHA256 =  5d22e414b1f82158bf2c7ecb8b97b28fd0923e48cadc1c3bf74d524558f5dd32 Fe_pv/POTCAR          
   COPYR  = (c) Copyright 02Aug2007 Georg Kresse                                                    
   COPYR  = This file is part of the software VASP. Any use, copying, and all other rights are regul
   COPYR  = If you do not have a valid VASP license, you may not use, copy or distribute this file. 
   VRHFIN =Fe:  3pd7s1                                                                              
   LEXCH  = PE                                                                                      
   EATOM  =  2457.4239 eV,  180.6156 Ry                                                             
                                                                                                    
   TITEL  = PAW_PBE Fe_pv 02Aug2007                                                                 
   LULTRA =        F    use ultrasoft PP ?                                                          
   IUNSCR =        1    unscreen: 0-lin 1-nonlin 2-no                                               
   RPACOR =    1.750    partial core radius                                                         
   POMASS =   55.847; ZVAL   =   14.000    mass and valenz                                          
   RCORE  =    2.200    outmost cutoff radius                                                       
   RWIGS  =    2.200; RWIGS  =    1.164    wigner-seitz radius (au A)                               
   ENMAX  =  293.238; ENMIN  =  219.928 eV                                                          
   ICORE  =        3    local potential                                                             
   LCOR   =        T    correct aug charges                                                         
   LPAW   =        T    paw PP                                                                      
   EAUG   =  578.342                                                                                
   DEXC   =    0.000                                                                                
   RMAX   =    2.249    core radius for proj-oper                                                   
   RAUG   =    1.300    factor for augmentation sphere                                              
   RDEP   =    2.296    radius for radial grids                                                     
   RDEPT  =    1.766    core radius for aug-charge                                                  
                                                                                                    
   Atomic configuration                                                                             
    8 entries                                                                                       
     n  l   j            E        occ.                                                              
     1  0  0.50     -6993.8440   2.0000                                                             
     2  0  0.50      -814.6047   2.0000                                                             
     2  1  1.50      -693.3689   6.0000                                                             
     3  0  0.50       -89.4732   2.0000                                                             
     3  1  1.50       -55.6373   6.0000                                                             
     3  2  2.50        -3.8151   7.0000                                                             
     4  0  0.50        -4.2551   1.0000                                                             
     4  3  2.50        -1.3606   0.0000                                                             
   Description                                                                                      
     l       E           TYP  RCUT    TYP  RCUT                                                     
     1    -55.6372668     23  2.000                                                                 
     1     -5.4423304     23  2.000                                                                 
     2     -3.8151096     23  2.200                                                                 
     2     -5.1756922     23  2.200                                                                 
     0     -4.2550951     23  2.200                                                                 
     0     27.2116520     23  2.200                                                                 
     3     -1.3605826     23  2.200                                                                 
  local pseudopotential read in
  partial core-charges read in
  partial kinetic energy density read in
  atomic valenz-charges read in
  non local Contribution for L=           1  read in
    real space projection operators read in
  non local Contribution for L=           1  read in
    real space projection operators read in
  non local Contribution for L=           2  read in
    real space projection operators read in
  non local Contribution for L=           2  read in
    real space projection operators read in
  non local Contribution for L=           0  read in
    real space projection operators read in
  non local Contribution for L=           0  read in
    real space projection operators read in
    PAW grid and wavefunctions read in
 
   number of l-projection  operators is LMAX  =           6
   number of lm-projection operators is LMMAX =          18
 
 POTCAR:    PAW_PBE Pt 04Feb2005                  
   SHA256 =  3ed90460adef76debcff1cfb73ee1349b515b1a3db03439735b44de3a8db7dc8 Pt/POTCAR             
   COPYR  = (c) Copyright 04Feb2005 Georg Kresse                                                    
   COPYR  = This file is part of the software VASP. Any use, copying, and all other rights are regul
   COPYR  = If you do not have a valid VASP license, you may not use, copy or distribute this file. 
   VRHFIN =Pt: s1d9                                                                                 
   LEXCH  = PE                                                                                      
   EATOM  =   729.1176 eV,   53.5886 Ry                                                             
                                                                                                    
   TITEL  = PAW_PBE Pt 04Feb2005                                                                    
   LULTRA =        F    use ultrasoft PP ?                                                          
   IUNSCR =        1    unscreen: 0-lin 1-nonlin 2-no                                               
   RPACOR =    2.330    partial core radius                                                         
   POMASS =  195.080; ZVAL   =   10.000    mass and valenz                                          
   RCORE  =    2.600    outmost cutoff radius                                                       
   RWIGS  =    2.750; RWIGS  =    1.455    wigner-seitz radius (au A)                               
   ENMAX  =  230.283; ENMIN  =  172.712 eV                                                          
   ICORE  =        3    local potential                                                             
   LCOR   =        T    correct aug charges                                                         
   LPAW   =        T    paw PP                                                                      
   EAUG   =  358.966                                                                                
   DEXC   =    0.000                                                                                
   RMAX   =    2.658    core radius for proj-oper                                                   
   RAUG   =    1.300    factor for augmentation sphere                                              
   RDEP   =    2.761    radius for radial grids                                                     
   RDEPT  =    2.203    core radius for aug-charge                                                  
                                                                                                    
   Atomic configuration                                                                             
   16 entries                                                                                       
     n  l   j            E        occ.                                                              
     1  0  0.50    -78401.1885   2.0000                                                             
     2  0  0.50    -13770.7750   2.0000                                                             
     2  1  1.50    -11931.0468   6.0000                                                             
     3  0  0.50     -3234.7234   2.0000                                                             
     3  1  1.50     -2699.2216   6.0000                                                             
     3  2  2.50     -2119.5714  10.0000                                                             
     4  0  0.50      -695.1528   2.0000                                                             
     4  1  1.50      -519.6034   6.0000                                                             
     4  2  2.50      -306.6786  10.0000                                                             
     4  3  3.50       -70.1041  14.0000                                                             
     5  0  0.50      -101.7747   2.0000                                                             
     5  1  1.50       -55.9873   6.0000                                                             
     5  2  2.50        -6.1423   9.0000                                                             
     6  0  0.50        -5.6573   1.0000                                                             
     6  1  1.50        -6.8029   0.0000                                                             
     5  3  2.50        -1.3606   0.0000                                                             
   Description                                                                                      
     l       E           TYP  RCUT    TYP  RCUT                                                     
     2     -6.1423404     23  2.500                                                                 
     2     -7.5029230     23  2.500                                                                 
     0     -5.6573207     23  2.500                                                                 
     0      0.7416693     23  2.500                                                                 
     1     -2.7211652     23  2.600                                                                 
     1     20.4087390     23  2.600                                                                 
     3     -1.3605826     23  2.500                                                                 
  local pseudopotential read in
  partial core-charges read in
  partial kinetic energy density read in
  atomic valenz-charges read in
  non local Contribution for L=           2  read in
    real space projection operators read in
  non local Contribution for L=           2  read in
    real space projection operators read in
  non local Contribution for L=           0  read in
    real space projection operators read in
  non local Contribution for L=           0  read in
    real space projection operators read in
  non local Contribution for L=           1  read in
    real space projection operators read in
  non local Contribution for L=           1  read in
    real space projection operators read in
    PAW grid and wavefunctions read in
 
   number of l-projection  operators is LMAX  =           6
   number of lm-projection operators is LMMAX =          18
 
  PAW_PBE Fe_pv 02Aug2007               :
 energy of atom  1       EATOM=-2457.4239
 kinetic energy error for atom=    0.0062 (will be added to EATOM!!)
  PAW_PBE Pt 04Feb2005                  :
 energy of atom  2       EATOM= -729.1176
 kinetic energy error for atom=    0.0032 (will be added to EATOM!!)
 
 
 POSCAR: Fe9 Pt3
  positions in direct lattice
  velocities in cartesian coordinates


 exchange-correlation table for PE
   RHO(1)=    0.500       N(1)  =     2000
   RHO(2)=  100.500       N(2)  =     4000
 


--------------------------------------------------------------------------------------------------------


 ion  position               nearest neighbor table
   1  0.000  0.500  0.167-   5 2.54   5 2.54   4 2.54   4 2.54   7 2.55   7 2.55   7 2.55   7 2.55
                            10 2.58  10 2.58  11 2.58  11 2.58
   2  0.000  0.500  0.500-  11 2.54  11 2.54   8 2.55   8 2.55   8 2.55   8 2.55  12 2.56  12 2.56
                             6 2.56   6 2.56   5 2.58   5 2.58
   3  0.000  0.500  0.834-  10 2.54  10 2.54   9 2.55   9 2.55   9 2.55   9 2.55   6 2.56   6 2.56
                            12 2.56  12 2.56   4 2.58   4 2.58
   4  0.500  0.500  0.002-   1 2.54   7 2.54   7 2.54   1 2.54  10 2.55  10 2.55  10 2.55  10 2.55
                             9 2.58   3 2.58   9 2.58   3 2.58
   5  0.500  0.500  0.331-   1 2.54   7 2.54   7 2.54   1 2.54  11 2.55  11 2.55  11 2.55  11 2.55
                             8 2.58   2 2.58   8 2.58   2 2.58
   6  0.500  0.500  0.667-  12 2.55  12 2.55  12 2.55  12 2.55   9 2.56   3 2.56   3 2.56   9 2.56
                             2 2.56   8 2.56   2 2.56   8 2.56
   7  0.500  0.000  0.167-   5 2.54   5 2.54   4 2.54   4 2.54   1 2.55   1 2.55   1 2.55   1 2.55
                            10 2.58  10 2.58  11 2.58  11 2.58
   8  0.500  0.000  0.500-  11 2.54  11 2.54   2 2.55   2 2.55   2 2.55   2 2.55  12 2.56  12 2.56
                             6 2.56   6 2.56   5 2.58   5 2.58
   9  0.500  0.000  0.834-  10 2.54  10 2.54   3 2.55   3 2.55   3 2.55   3 2.55   6 2.56   6 2.56
                            12 2.56  12 2.56   4 2.58   4 2.58
  10  0.000  0.000  0.998-   3 2.54   9 2.54   3 2.54   9 2.54   4 2.55   4 2.55   4 2.55   4 2.55
                             1 2.58   7 2.58   7 2.58   1 2.58
  11  0.000  0.000  0.335-   2 2.54   8 2.54   2 2.54   8 2.54   5 2.55   5 2.55   5 2.55   5 2.55
                             1 2.58   7 2.58   7 2.58   1 2.58
  12  0.000  0.000  0.667-   6 2.55   6 2.55   6 2.55   6 2.55   2 2.56   8 2.56   8 2.56   2 2.56
                             3 2.56   3 2.56   9 2.56   9 2.56
 
  LATTYP: Found a simple tetragonal cell.
 ALAT       =     3.6082462937
 C/A-ratio  =     3.0227332397
  
  Lattice vectors:
  
 A1 = (   3.6082462937,   0.0000000000,   0.0000000000)
 A2 = (   0.0000000000,   3.6082462937,   0.0000000000)
 A3 = (   0.0000000000,   0.0000000000,  10.9067660089)


Analysis of symmetry for initial positions (statically):
=====================================================================
 Subroutine PRICEL returns:
 Original cell was already a primitive cell.
 

 Routine SETGRP: Setting up the symmetry group for a 
 simple tetragonal supercell.


 Subroutine GETGRP returns: Found  8 space group operations
 (whereof  8 operations were pure point group operations)
 out of a pool of 16 trial point group operations.


The static configuration has the point symmetry C_4v.


Analysis of symmetry for dynamics (positions and initial velocities):
=====================================================================
 Subroutine PRICEL returns:
 Original cell was already a primitive cell.
 

 Routine SETGRP: Setting up the symmetry group for a 
 simple tetragonal supercell.


 Subroutine GETGRP returns: Found  8 space group operations
 (whereof  8 operations were pure point group operations)
 out of a pool of 16 trial point group operations.


The dynamic configuration has the point symmetry C_4v.


Analysis of structural, dynamic, and magnetic symmetry:
=====================================================================
 Subroutine PRICEL returns:
 Original cell was already a primitive cell.
 

 Routine SETGRP: Setting up the symmetry group for a 
 simple tetragonal supercell.


 Subroutine GETGRP returns: Found  8 space group operations
 (whereof  8 operations were pure point group operations)
 out of a pool of 16 trial point group operations.


The overall configuration has the point symmetry C_4v.


 Subroutine INISYM returns: Found  8 space group operations
 (whereof  8 operations are pure point group operations),
 and found     1 'primitive' translations


----------------------------------------------------------------------------------------

                                     Primitive cell                                     

  volume of cell :     142.0000

  direct lattice vectors                    reciprocal lattice vectors
     3.608246294  0.000000000  0.000000000     0.277142944  0.000000000  0.000000000
     0.000000000  3.608246294  0.000000000     0.000000000  0.277142944  0.000000000
     0.000000000  0.000000000 10.906766009     0.000000000  0.000000000  0.091686206

  length of vectors
     3.608246294  3.608246294 10.906766009     0.277142944  0.277142944  0.091686206

  position of ions in fractional coordinates (direct lattice)
     0.000000000  0.500000000  0.166639475
     0.000000000  0.500000000  0.499625549
     0.000000000  0.500000000  0.833737698
     0.500000000  0.500000000  0.002324709
     0.500000000  0.500000000  0.330938591
     0.500000000  0.500000000  0.666734069
     0.500000000  0.000000000  0.166639475
     0.500000000  0.000000000  0.499625549
     0.500000000  0.000000000  0.833737698
     0.000000000  0.000000000  0.997948850
     0.000000000  0.000000000  0.335367696
     0.000000000  0.000000000  0.666680642

  ion indices of the primitive-cell ions
   primitive index   ion index
                 1           1
                 2           2
                 3           3
                 4           4
                 5           5
                 6           6
                 7           7
                 8           8
                 9           9
                10          10
                11          11
                12          12

----------------------------------------------------------------------------------------

 
 
 KPOINTS: pymatgen with grid density = 8800 / numb

Automatic generation of k-mesh.
 Grid dimensions read from file:
 generate k-points for:   13   13    4

 Generating k-lattice:

  Cartesian coordinates                     Fractional coordinates (reciprocal lattice)
     0.021318688  0.000000000  0.000000000     0.076923077  0.000000000  0.000000000
     0.000000000  0.021318688  0.000000000     0.000000000  0.076923077  0.000000000
     0.000000000  0.000000000  0.022921552     0.000000000  0.000000000  0.250000000

  Length of vectors
     0.021318688  0.021318688  0.022921552

  Shift w.r.t. Gamma in fractional coordinates (k-lattice)
     0.000000000  0.000000000  0.000000000

 
 Subroutine IBZKPT returns following result:
 ===========================================
 
 Found     84 irreducible k-points:
 
 Following reciprocal coordinates:
            Coordinates               Weight
  0.000000  0.000000  0.000000      1.000000
  0.076923  0.000000  0.000000      4.000000
  0.153846  0.000000  0.000000      4.000000
  0.230769  0.000000  0.000000      4.000000
  0.307692  0.000000  0.000000      4.000000
  0.384615  0.000000  0.000000      4.000000
  0.461538  0.000000  0.000000      4.000000
  0.076923  0.076923  0.000000      4.000000
  0.153846  0.076923  0.000000      8.000000
  0.230769  0.076923  0.000000      8.000000
  0.307692  0.076923  0.000000      8.000000
  0.384615  0.076923  0.000000      8.000000
  0.461538  0.076923  0.000000      8.000000
  0.153846  0.153846  0.000000      4.000000
  0.230769  0.153846  0.000000      8.000000
  0.307692  0.153846  0.000000      8.000000
  0.384615  0.153846  0.000000      8.000000
  0.461538  0.153846  0.000000      8.000000
  0.230769  0.230769  0.000000      4.000000
  0.307692  0.230769  0.000000      8.000000
  0.384615  0.230769  0.000000      8.000000
  0.461538  0.230769  0.000000      8.000000
  0.307692  0.307692  0.000000      4.000000
  0.384615  0.307692  0.000000      8.000000
  0.461538  0.307692  0.000000      8.000000
  0.384615  0.384615  0.000000      4.000000
  0.461538  0.384615  0.000000      8.000000
  0.461538  0.461538  0.000000      4.000000
  0.000000  0.000000  0.250000      2.000000
  0.076923  0.000000  0.250000      8.000000
  0.153846  0.000000  0.250000      8.000000
  0.230769  0.000000  0.250000      8.000000
  0.307692  0.000000  0.250000      8.000000
  0.384615  0.000000  0.250000      8.000000
  0.461538  0.000000  0.250000      8.000000
  0.076923  0.076923  0.250000      8.000000
  0.153846  0.076923  0.250000     16.000000
  0.230769  0.076923  0.250000     16.000000
  0.307692  0.076923  0.250000     16.000000
  0.384615  0.076923  0.250000     16.000000
  0.461538  0.076923  0.250000     16.000000
  0.153846  0.153846  0.250000      8.000000
  0.230769  0.153846  0.250000     16.000000
  0.307692  0.153846  0.250000     16.000000
  0.384615  0.153846  0.250000     16.000000
  0.461538  0.153846  0.250000     16.000000
  0.230769  0.230769  0.250000      8.000000
  0.307692  0.230769  0.250000     16.000000
  0.384615  0.230769  0.250000     16.000000
  0.461538  0.230769  0.250000     16.000000
  0.307692  0.307692  0.250000      8.000000
  0.384615  0.307692  0.250000     16.000000
  0.461538  0.307692  0.250000     16.000000
  0.384615  0.384615  0.250000      8.000000
  0.461538  0.384615  0.250000     16.000000
  0.461538  0.461538  0.250000      8.000000
  0.000000  0.000000  0.500000      1.000000
  0.076923  0.000000  0.500000      4.000000
  0.153846  0.000000  0.500000      4.000000
  0.230769  0.000000  0.500000      4.000000
  0.307692  0.000000  0.500000      4.000000
  0.384615  0.000000  0.500000      4.000000
  0.461538  0.000000  0.500000      4.000000
  0.076923  0.076923  0.500000      4.000000
  0.153846  0.076923  0.500000      8.000000
  0.230769  0.076923  0.500000      8.000000
  0.307692  0.076923  0.500000      8.000000
  0.384615  0.076923  0.500000      8.000000
  0.461538  0.076923  0.500000      8.000000
  0.153846  0.153846  0.500000      4.000000
  0.230769  0.153846  0.500000      8.000000
  0.307692  0.153846  0.500000      8.000000
  0.384615  0.153846  0.500000      8.000000
  0.461538  0.153846  0.500000      8.000000
  0.230769  0.230769  0.500000      4.000000
  0.307692  0.230769  0.500000      8.000000
  0.384615  0.230769  0.500000      8.000000
  0.461538  0.230769  0.500000      8.000000
  0.307692  0.307692  0.500000      4.000000
  0.384615  0.307692  0.500000      8.000000
  0.461538  0.307692  0.500000      8.000000
  0.384615  0.384615  0.500000      4.000000
  0.461538  0.384615  0.500000      8.000000
  0.461538  0.461538  0.500000      4.000000
 
 Following cartesian coordinates:
            Coordinates               Weight
  0.000000  0.000000  0.000000      1.000000
  0.021319  0.000000  0.000000      4.000000
  0.042637  0.000000  0.000000      4.000000
  0.063956  0.000000  0.000000      4.000000
  0.085275  0.000000  0.000000      4.000000
  0.106593  0.000000  0.000000      4.000000
  0.127912  0.000000  0.000000      4.000000
  0.021319  0.021319  0.000000      4.000000
  0.042637  0.021319  0.000000      8.000000
  0.063956  0.021319  0.000000      8.000000
  0.085275  0.021319  0.000000      8.000000
  0.106593  0.021319  0.000000      8.000000
  0.127912  0.021319  0.000000      8.000000
  0.042637  0.042637  0.000000      4.000000
  0.063956  0.042637  0.000000      8.000000
  0.085275  0.042637  0.000000      8.000000
  0.106593  0.042637  0.000000      8.000000
  0.127912  0.042637  0.000000      8.000000
  0.063956  0.063956  0.000000      4.000000
  0.085275  0.063956  0.000000      8.000000
  0.106593  0.063956  0.000000      8.000000
  0.127912  0.063956  0.000000      8.000000
  0.085275  0.085275  0.000000      4.000000
  0.106593  0.085275  0.000000      8.000000
  0.127912  0.085275  0.000000      8.000000
  0.106593  0.106593  0.000000      4.000000
  0.127912  0.106593  0.000000      8.000000
  0.127912  0.127912  0.000000      4.000000
  0.000000  0.000000  0.022922      2.000000
  0.021319  0.000000  0.022922      8.000000
  0.042637  0.000000  0.022922      8.000000
  0.063956  0.000000  0.022922      8.000000
  0.085275  0.000000  0.022922      8.000000
  0.106593  0.000000  0.022922      8.000000
  0.127912  0.000000  0.022922      8.000000
  0.021319  0.021319  0.022922      8.000000
  0.042637  0.021319  0.022922     16.000000
  0.063956  0.021319  0.022922     16.000000
  0.085275  0.021319  0.022922     16.000000
  0.106593  0.021319  0.022922     16.000000
  0.127912  0.021319  0.022922     16.000000
  0.042637  0.042637  0.022922      8.000000
  0.063956  0.042637  0.022922     16.000000
  0.085275  0.042637  0.022922     16.000000
  0.106593  0.042637  0.022922     16.000000
  0.127912  0.042637  0.022922     16.000000
  0.063956  0.063956  0.022922      8.000000
  0.085275  0.063956  0.022922     16.000000
  0.106593  0.063956  0.022922     16.000000
  0.127912  0.063956  0.022922     16.000000
  0.085275  0.085275  0.022922      8.000000
  0.106593  0.085275  0.022922     16.000000
  0.127912  0.085275  0.022922     16.000000
  0.106593  0.106593  0.022922      8.000000
  0.127912  0.106593  0.022922     16.000000
  0.127912  0.127912  0.022922      8.000000
  0.000000  0.000000  0.045843      1.000000
  0.021319  0.000000  0.045843      4.000000
  0.042637  0.000000  0.045843      4.000000
  0.063956  0.000000  0.045843      4.000000
  0.085275  0.000000  0.045843      4.000000
  0.106593  0.000000  0.045843      4.000000
  0.127912  0.000000  0.045843      4.000000
  0.021319  0.021319  0.045843      4.000000
  0.042637  0.021319  0.045843      8.000000
  0.063956  0.021319  0.045843      8.000000
  0.085275  0.021319  0.045843      8.000000
  0.106593  0.021319  0.045843      8.000000
  0.127912  0.021319  0.045843      8.000000
  0.042637  0.042637  0.045843      4.000000
  0.063956  0.042637  0.045843      8.000000
  0.085275  0.042637  0.045843      8.000000
  0.106593  0.042637  0.045843      8.000000
  0.127912  0.042637  0.045843      8.000000
  0.063956  0.063956  0.045843      4.000000
  0.085275  0.063956  0.045843      8.000000
  0.106593  0.063956  0.045843      8.000000
  0.127912  0.063956  0.045843      8.000000
  0.085275  0.085275  0.045843      4.000000
  0.106593  0.085275  0.045843      8.000000
  0.127912  0.085275  0.045843      8.000000
  0.106593  0.106593  0.045843      4.000000
  0.127912  0.106593  0.045843      8.000000
  0.127912  0.127912  0.045843      4.000000
 


--------------------------------------------------------------------------------------------------------




 Dimension of arrays:
   k-points           NKPTS =     84   k-points in BZ     NKDIM =     84   number of bands    NBANDS=     96
   number of dos      NEDOS =    301   number of ions     NIONS =     12
   non local maximal  LDIM  =      6   non local SUM 2l+1 LMDIM =     18
   total plane-waves  NPLWV =  65856
   max r-space proj   IRMAX =      1   max aug-charges    IRDMAX=  28286
   dimension x,y,z NGX =    28 NGY =   28 NGZ =   84
   dimension x,y,z NGXF=    56 NGYF=   56 NGZF=  168
   support grid    NGXF=    56 NGYF=   56 NGZF=  168
   ions per type =               9   3
   NGX,Y,Z   is equivalent  to a cutoff of  12.90, 12.90, 12.80 a.u.
   NGXF,Y,Z  is equivalent  to a cutoff of  25.80, 25.80, 25.61 a.u.

 SYSTEM =  unknown system                          
 POSCAR =  Fe9 Pt3                                 

 Startparameter for this run:
   NWRITE =      2    write-flag & timer
   PREC   = accura    normal or accurate (medium, high low for compatibility)
   ISTART =      0    job   : 0-new  1-cont  2-samecut
   ICHARG =      2    charge: 1-file 2-atom 10-const
   ISPIN  =      2    spin polarized calculation?
   LNONCOLLINEAR =      F non collinear calculations
   LSORBIT =      F    spin-orbit coupling
   INIWAV =      1    electr: 0-lowe 1-rand  2-diag
   LASPH  =      F    aspherical Exc in radial PAW
 Electronic Relaxation 1
   ENCUT  =  520.0 eV  38.22 Ry    6.18 a.u.   6.71  6.71 20.28*2*pi/ulx,y,z
   ENINI  =  520.0     initial cutoff
   ENAUG  =  578.3 eV  augmentation charge cutoff
   NELM   =    200;   NELMIN=  2; NELMDL=  0     # of ELM steps 
   EDIFF  = 0.1E-05   stopping-criterion for ELM
   LREAL  =      F    real-space projection
   NLSPLINE    = F    spline interpolate recip. space projectors
   LCOMPAT=      F    compatible to vasp.4.4
   GGA_COMPAT  = T    GGA compatible to vasp.4.4-vasp.4.6
   LMAXPAW     = -100 max onsite density
   LMAXMIX     =    2 max onsite mixed and CHGCAR
   VOSKOWN=      0    Vosko Wilk Nusair interpolation
   ROPT   =    0.00000   0.00000
 Ionic relaxation
   EDIFFG = -.1E-01   stopping-criterion for IOM
   NSW    =    100    number of steps for IOM
   NBLOCK =      1;   KBLOCK =    100    inner block; outer block 
   IBRION =      2    ionic relax: 0-MD 1-quasi-New 2-CG
   NFREE  =      1    steps in history (QN), initial steepest desc. (CG)
   ISIF   =      4    stress and relaxation
   IWAVPR =     11    prediction:  0-non 1-charg 2-wave 3-comb
   ISYM   =      2    0-nonsym 1-usesym 2-fastsym
   LCORR  =      T    Harris-Foulkes like correction to forces

   POTIM  = 0.5000    time-step for ionic-motion
   TEIN   =    0.0    initial temperature
   TEBEG  =    0.0;   TEEND  =   0.0 temperature during run
   SMASS  =  -3.00    Nose mass-parameter (am)
   estimated Nose-frequenzy (Omega)   =  0.10E-29 period in steps = 0.13E+47 mass=  -0.298E-27a.u.
   SCALEE = 1.0000    scale energy and forces
   NPACO  =    256;   APACO  = 10.0  distance and # of slots for P.C.
   PSTRESS=    0.0 pullay stress

  Mass of Ions in am
   POMASS =  55.85195.08
  Ionic Valenz
   ZVAL   =  14.00 10.00
  Atomic Wigner-Seitz radii
   RWIGS  =  -1.00 -1.00
  virtual crystal weights 
   VCA    =   1.00  1.00
   NELECT =     156.0000    total number of electrons
   NUPDOWN=      -1.0000    fix difference up-down

 DOS related values:
   EMIN   =  10.00;   EMAX   =-10.00  energy-range for DOS
   EFERMI =   0.00;   METHOD = LEGACY      
   ISMEAR =     1;   SIGMA  =   0.20  broadening in eV -4-tet -1-fermi 0-gaus

 Electronic relaxation 2 (details)
   IALGO  =     58    algorithm
   LDIAG  =      T    sub-space diagonalisation (order eigenvalues)
   LSUBROT=      F    optimize rotation matrix (better conditioning)
   TURBO    =      0    0=normal 1=particle mesh
   IRESTART =      0    0=no restart 2=restart with 2 vectors
   NREBOOT  =      0    no. of reboots
   NMIN     =      0    reboot dimension
   EREF     =   0.00    reference energy to select bands
   IMIX   =      4    mixing-type and parameters
     AMIX     =   0.40;   BMIX     =  1.00
     AMIX_MAG =   1.60;   BMIX_MAG =  1.00
     AMIN     =   0.10
     WC   =   100.;   INIMIX=   1;  MIXPRE=   1;  MAXMIX= -45

 Intra band minimization:
   WEIMIN = 0.0010     energy-eigenvalue tresh-hold
   EBREAK =  0.26E-08  absolut break condition
   DEPER  =   0.30     relativ break condition  

   TIME   =   0.40     timestep for ELM

  volume/ion in A,a.u.               =      11.83        79.86
  Fermi-wavevector in a.u.,A,eV,Ry     =   1.689223  3.192168 38.823863  2.853473
  Thomas-Fermi vector in A             =   2.771388
 
 Write flags
   LWAVE        =      F    write WAVECAR
   LDOWNSAMPLE  =      F    k-point downsampling of WAVECAR
   LCHARG       =      T    write CHGCAR
   LVTOT        =      F    write LOCPOT, total local potential
   LVHAR        =      F    write LOCPOT, Hartree potential only
   WRT_POTENTIAL= false  ! write potential to hdf5 file
   LELF         =      F    write electronic localiz. function (ELF)
   LORBIT       =     11    0 simple, 1 ext, 2 COOP (PROOUT), +10 PAW based schemes


 Dipole corrections
   LMONO      =      F    monopole corrections only (constant potential shift)
   LDIPOL     =      F    correct potential (dipole corrections)
   IDIPOL     =      0    1-x, 2-y, 3-z, 4-all directions 
   EPSILON    =  1.0000000 bulk dielectric constant
   LVACPOTAV  =      F  vacuum potentials using an averaging scheme for the charge density
   VACPOTFLAT =  0.1000000 required flatness to determine vacuum potential
 Exchange correlation treatment:
   GGA     = PE    functional components
   XC_C    = 1    coefficients multiplying the functional components
   LIBXC   =     F    Libxc                    
   VOSKOWN =     0    Vosko Wilk Nusair interpolation
   LHFCALC =     F    Hartree Fock is set to
   LHFONE  =     F    Hartree Fock one center treatment
   AEXX    =    0.0000 exact exchange contribution

 Parameters of functionals:
   PE:
     No parameter
 
 Van der Waals corrections
   IVDW    =     0    specifies the selected vdW correction

 Linear response parameters
   LEPSILON=     F    determine dielectric tensor
   LRPA    =     F    only Hartree local field effects (RPA)
   LNABLA  =     F    use nabla operator in PAW spheres
   LVEL    =     F    velocity operator in full k-point grid
   CSHIFT  =0.1000    complex shift for real part using Kramers Kronig
   OMEGAMAX=  -1.0    maximum frequency
   DEG_THRESHOLD= 0.2000000E-02 threshold for treating states as degnerate
   RTIME   =   -0.100 relaxation time in fs
  (WPLASMAI=    0.000 imaginary part of plasma frequency in eV, 0.658/RTIME)
   DFIELD  = 0.0000000 0.0000000 0.0000000 field for delta impulse in time
 
  Optional k-point grid parameters
   LKPOINTS_OPT  =     F    use optional k-point grid
   KPOINTS_OPT_MODE=     1    mode for optional k-point grid
 
 Orbital magnetization related:
   ORBITALMAG=     F  switch on orbital magnetization
   LCHIMAG   =     F  perturbation theory with respect to B field
   DQ        =  0.001000  dq finite difference perturbation B field
   LLRAUG    =     F  two centre corrections for induced B field
   LBONE     =     F  B-component reconstruction in AE one-centre
   LVGVCALC  =     T  calculate vGv susceptibility
   LVGVAPPL  =     F  apply vGv susceptibility instead of pGv for G=0

 Random number generation:
   RANDOM_GENERATOR = DEFAULT
   PCG_SEED         = not used


--------------------------------------------------------------------------------------------------------


 conjugate gradient relaxation of ions
 charge density and potential will be updated during run
 spin polarized calculation
 Conjugate gradient for all bands (Freysoldt, et al. PRB 79, 241103 (2009))
 preconditioned conjugated gradient                                        
 perform sub-space diagonalisation
    before iterative eigenvector-optimisation
 modified Broyden-mixing scheme, WC =      100.0
 initial mixing is a Kerker type mixing with AMIX =  0.4000 and BMIX =      1.0000
 Hartree-type preconditioning will be used
 using additional bands           18
 reciprocal scheme for non local part
 use partial core corrections
 no Harris-corrections to forces 
 use gradient corrections 
 use of overlap-Matrix (Vanderbilt PP)
 Methfessel and Paxton  Order N= 1 SIGMA  =   0.20


--------------------------------------------------------------------------------------------------------


  energy-cutoff  :      520.00
  volume of cell :      142.00
      direct lattice vectors                 reciprocal lattice vectors
     3.608246294  0.000000000  0.000000000     0.277142944  0.000000000  0.000000000
     0.000000000  3.608246294  0.000000000     0.000000000  0.277142944  0.000000000
     0.000000000  0.000000000 10.906766009     0.000000000  0.000000000  0.091686206

  length of vectors
     3.608246294  3.608246294 10.906766009     0.277142944  0.277142944  0.091686206


 
 k-points in units of 2pi/SCALE and weight: pymatgen with grid density = 8800 / numb
   0.00000000  0.00000000  0.00000000       0.001
   0.02131869  0.00000000  0.00000000       0.006
   0.04263738  0.00000000  0.00000000       0.006
   0.06395606  0.00000000  0.00000000       0.006
   0.08527475  0.00000000  0.00000000       0.006
   0.10659344  0.00000000  0.00000000       0.006
   0.12791213  0.00000000  0.00000000       0.006
   0.02131869  0.02131869  0.00000000       0.006
   0.04263738  0.02131869  0.00000000       0.012
   0.06395606  0.02131869  0.00000000       0.012
   0.08527475  0.02131869  0.00000000       0.012
   0.10659344  0.02131869  0.00000000       0.012
   0.12791213  0.02131869  0.00000000       0.012
   0.04263738  0.04263738  0.00000000       0.006
   0.06395606  0.04263738  0.00000000       0.012
   0.08527475  0.04263738  0.00000000       0.012
   0.10659344  0.04263738  0.00000000       0.012
   0.12791213  0.04263738  0.00000000       0.012
   0.06395606  0.06395606  0.00000000       0.006
   0.08527475  0.06395606  0.00000000       0.012
   0.10659344  0.06395606  0.00000000       0.012
   0.12791213  0.06395606  0.00000000       0.012
   0.08527475  0.08527475  0.00000000       0.006
   0.10659344  0.08527475  0.00000000       0.012
   0.12791213  0.08527475  0.00000000       0.012
   0.10659344  0.10659344  0.00000000       0.006
   0.12791213  0.10659344  0.00000000       0.012
   0.12791213  0.12791213  0.00000000       0.006
   0.00000000  0.00000000  0.02292155       0.003
   0.02131869  0.00000000  0.02292155       0.012
   0.04263738  0.00000000  0.02292155       0.012
   0.06395606  0.00000000  0.02292155       0.012
   0.08527475  0.00000000  0.02292155       0.012
   0.10659344  0.00000000  0.02292155       0.012
   0.12791213  0.00000000  0.02292155       0.012
   0.02131869  0.02131869  0.02292155       0.012
   0.04263738  0.02131869  0.02292155       0.024
   0.06395606  0.02131869  0.02292155       0.024
   0.08527475  0.02131869  0.02292155       0.024
   0.10659344  0.02131869  0.02292155       0.024
   0.12791213  0.02131869  0.02292155       0.024
   0.04263738  0.04263738  0.02292155       0.012
   0.06395606  0.04263738  0.02292155       0.024
   0.08527475  0.04263738  0.02292155       0.024
   0.10659344  0.04263738  0.02292155       0.024
   0.12791213  0.04263738  0.02292155       0.024
   0.06395606  0.06395606  0.02292155       0.012
   0.08527475  0.06395606  0.02292155       0.024
   0.10659344  0.06395606  0.02292155       0.024
   0.12791213  0.06395606  0.02292155       0.024
   0.08527475  0.08527475  0.02292155       0.012
   0.10659344  0.08527475  0.02292155       0.024
   0.12791213  0.08527475  0.02292155       0.024
   0.10659344  0.10659344  0.02292155       0.012
   0.12791213  0.10659344  0.02292155       0.024
   0.12791213  0.12791213  0.02292155       0.012
   0.00000000  0.00000000  0.04584310       0.001
   0.02131869  0.00000000  0.04584310       0.006
   0.04263738  0.00000000  0.04584310       0.006
   0.06395606  0.00000000  0.04584310       0.006
   0.08527475  0.00000000  0.04584310       0.006
   0.10659344  0.00000000  0.04584310       0.006
   0.12791213  0.00000000  0.04584310       0.006
   0.02131869  0.02131869  0.04584310       0.006
   0.04263738  0.02131869  0.04584310       0.012
   0.06395606  0.02131869  0.04584310       0.012
   0.08527475  0.02131869  0.04584310       0.012
   0.10659344  0.02131869  0.04584310       0.012
   0.12791213  0.02131869  0.04584310       0.012
   0.04263738  0.04263738  0.04584310       0.006
   0.06395606  0.04263738  0.04584310       0.012
   0.08527475  0.04263738  0.04584310       0.012
   0.10659344  0.04263738  0.04584310       0.012
   0.12791213  0.04263738  0.04584310       0.012
   0.06395606  0.06395606  0.04584310       0.006
   0.08527475  0.06395606  0.04584310       0.012
   0.10659344  0.06395606  0.04584310       0.012
   0.12791213  0.06395606  0.04584310       0.012
   0.08527475  0.08527475  0.04584310       0.006
   0.10659344  0.08527475  0.04584310       0.012
   0.12791213  0.08527475  0.04584310       0.012
   0.10659344  0.10659344  0.04584310       0.006
   0.12791213  0.10659344  0.04584310       0.012
   0.12791213  0.12791213  0.04584310       0.006
 
 k-points in reciprocal lattice and weights: pymatgen with grid density = 8800 / numb
   0.00000000  0.00000000  0.00000000       0.001
   0.07692308  0.00000000  0.00000000       0.006
   0.15384615  0.00000000  0.00000000       0.006
   0.23076923  0.00000000  0.00000000       0.006
   0.30769231  0.00000000  0.00000000       0.006
   0.38461538  0.00000000  0.00000000       0.006
   0.46153846  0.00000000  0.00000000       0.006
   0.07692308  0.07692308  0.00000000       0.006
   0.15384615  0.07692308  0.00000000       0.012
   0.23076923  0.07692308  0.00000000       0.012
   0.30769231  0.07692308  0.00000000       0.012
   0.38461538  0.07692308  0.00000000       0.012
   0.46153846  0.07692308  0.00000000       0.012
   0.15384615  0.15384615  0.00000000       0.006
   0.23076923  0.15384615  0.00000000       0.012
   0.30769231  0.15384615  0.00000000       0.012
   0.38461538  0.15384615  0.00000000       0.012
   0.46153846  0.15384615  0.00000000       0.012
   0.23076923  0.23076923  0.00000000       0.006
   0.30769231  0.23076923  0.00000000       0.012
   0.38461538  0.23076923  0.00000000       0.012
   0.46153846  0.23076923  0.00000000       0.012
   0.30769231  0.30769231  0.00000000       0.006
   0.38461538  0.30769231  0.00000000       0.012
   0.46153846  0.30769231  0.00000000       0.012
   0.38461538  0.38461538  0.00000000       0.006
   0.46153846  0.38461538  0.00000000       0.012
   0.46153846  0.46153846  0.00000000       0.006
   0.00000000  0.00000000  0.25000000       0.003
   0.07692308  0.00000000  0.25000000       0.012
   0.15384615  0.00000000  0.25000000       0.012
   0.23076923  0.00000000  0.25000000       0.012
   0.30769231  0.00000000  0.25000000       0.012
   0.38461538  0.00000000  0.25000000       0.012
   0.46153846  0.00000000  0.25000000       0.012
   0.07692308  0.07692308  0.25000000       0.012
   0.15384615  0.07692308  0.25000000       0.024
   0.23076923  0.07692308  0.25000000       0.024
   0.30769231  0.07692308  0.25000000       0.024
   0.38461538  0.07692308  0.25000000       0.024
   0.46153846  0.07692308  0.25000000       0.024
   0.15384615  0.15384615  0.25000000       0.012
   0.23076923  0.15384615  0.25000000       0.024
   0.30769231  0.15384615  0.25000000       0.024
   0.38461538  0.15384615  0.25000000       0.024
   0.46153846  0.15384615  0.25000000       0.024
   0.23076923  0.23076923  0.25000000       0.012
   0.30769231  0.23076923  0.25000000       0.024
   0.38461538  0.23076923  0.25000000       0.024
   0.46153846  0.23076923  0.25000000       0.024
   0.30769231  0.30769231  0.25000000       0.012
   0.38461538  0.30769231  0.25000000       0.024
   0.46153846  0.30769231  0.25000000       0.024
   0.38461538  0.38461538  0.25000000       0.012
   0.46153846  0.38461538  0.25000000       0.024
   0.46153846  0.46153846  0.25000000       0.012
   0.00000000  0.00000000  0.50000000       0.001
   0.07692308  0.00000000  0.50000000       0.006
   0.15384615  0.00000000  0.50000000       0.006
   0.23076923  0.00000000  0.50000000       0.006
   0.30769231  0.00000000  0.50000000       0.006
   0.38461538  0.00000000  0.50000000       0.006
   0.46153846  0.00000000  0.50000000       0.006
   0.07692308  0.07692308  0.50000000       0.006
   0.15384615  0.07692308  0.50000000       0.012
   0.23076923  0.07692308  0.50000000       0.012
   0.30769231  0.07692308  0.50000000       0.012
   0.38461538  0.07692308  0.50000000       0.012
   0.46153846  0.07692308  0.50000000       0.012
   0.15384615  0.15384615  0.50000000       0.006
   0.23076923  0.15384615  0.50000000       0.012
   0.30769231  0.15384615  0.50000000       0.012
   0.38461538  0.15384615  0.50000000       0.012
   0.46153846  0.15384615  0.50000000       0.012
   0.23076923  0.23076923  0.50000000       0.006
   0.30769231  0.23076923  0.50000000       0.012
   0.38461538  0.23076923  0.50000000       0.012
   0.46153846  0.23076923  0.50000000       0.012
   0.30769231  0.30769231  0.50000000       0.006
   0.38461538  0.30769231  0.50000000       0.012
   0.46153846  0.30769231  0.50000000       0.012
   0.38461538  0.38461538  0.50000000       0.006
   0.46153846  0.38461538  0.50000000       0.012
   0.46153846  0.46153846  0.50000000       0.006
 
 position of ions in fractional coordinates (direct lattice) 
   0.00000000  0.50000000  0.16663948
   0.00000000  0.50000000  0.49962555
   0.00000000  0.50000000  0.83373770
   0.50000000  0.50000000  0.00232471
   0.50000000  0.50000000  0.33093859
   0.50000000  0.50000000  0.66673407
   0.50000000  0.00000000  0.16663948
   0.50000000  0.00000000  0.49962555
   0.50000000  0.00000000  0.83373770
   0.00000000  0.00000000  0.99794885
   0.00000000  0.00000000  0.33536770
   0.00000000  0.00000000  0.66668064
 
 position of ions in cartesian coordinates  (Angst):
   0.00000000  1.80412315  1.81749776
   0.00000000  1.80412315  5.44929896
   0.00000000  1.80412315  9.09338198
   1.80412315  1.80412315  0.02535505
   1.80412315  1.80412315  3.60946977
   1.80412315  1.80412315  7.27191248
   1.80412315  0.00000000  1.81749776
   1.80412315  0.00000000  5.44929896
   1.80412315  0.00000000  9.09338198
   0.00000000  0.00000000 10.88439460
   0.00000000  0.00000000  3.65777698
   0.00000000  0.00000000  7.27132976
 


--------------------------------------------------------------------------------------------------------


 k-point     1 :   0.0000 0.0000 0.0000  plane waves:    3857
 k-point     2 :   0.0769 0.0000 0.0000  plane waves:    3855
 k-point     3 :   0.1538 0.0000 0.0000  plane waves:    3841
 k-point     4 :   0.2308 0.0000 0.0000  plane waves:    3833
 k-point     5 :   0.3077 0.0000 0.0000  plane waves:    3834
 k-point     6 :   0.3846 0.0000 0.0000  plane waves:    3818
 k-point     7 :   0.4615 0.0000 0.0000  plane waves:    3804
 k-point     8 :   0.0769 0.0769 0.0000  plane waves:    3847
 k-point     9 :   0.1538 0.0769 0.0000  plane waves:    3842
 k-point    10 :   0.2308 0.0769 0.0000  plane waves:    3833
 k-point    11 :   0.3077 0.0769 0.0000  plane waves:    3830
 k-point    12 :   0.3846 0.0769 0.0000  plane waves:    3822
 k-point    13 :   0.4615 0.0769 0.0000  plane waves:    3808
 k-point    14 :   0.1538 0.1538 0.0000  plane waves:    3827
 k-point    15 :   0.2308 0.1538 0.0000  plane waves:    3829
 k-point    16 :   0.3077 0.1538 0.0000  plane waves:    3811
 k-point    17 :   0.3846 0.1538 0.0000  plane waves:    3813
 k-point    18 :   0.4615 0.1538 0.0000  plane waves:    3803
 k-point    19 :   0.2308 0.2308 0.0000  plane waves:    3821
 k-point    20 :   0.3077 0.2308 0.0000  plane waves:    3819
 k-point    21 :   0.3846 0.2308 0.0000  plane waves:    3819
 k-point    22 :   0.4615 0.2308 0.0000  plane waves:    3818
 k-point    23 :   0.3077 0.3077 0.0000  plane waves:    3800
 k-point    24 :   0.3846 0.3077 0.0000  plane waves:    3805
 k-point    25 :   0.4615 0.3077 0.0000  plane waves:    3826
 k-point    26 :   0.3846 0.3846 0.0000  plane waves:    3830
 k-point    27 :   0.4615 0.3846 0.0000  plane waves:    3853
 k-point    28 :   0.4615 0.4615 0.0000  plane waves:    3840
 k-point    29 :   0.0000 0.0000 0.2500  plane waves:    3821
 k-point    30 :   0.0769 0.0000 0.2500  plane waves:    3836
 k-point    31 :   0.1538 0.0000 0.2500  plane waves:    3842
 k-point    32 :   0.2308 0.0000 0.2500  plane waves:    3844
 k-point    33 :   0.3077 0.0000 0.2500  plane waves:    3833
 k-point    34 :   0.3846 0.0000 0.2500  plane waves:    3814
 k-point    35 :   0.4615 0.0000 0.2500  plane waves:    3817
 k-point    36 :   0.0769 0.0769 0.2500  plane waves:    3840
 k-point    37 :   0.1538 0.0769 0.2500  plane waves:    3831
 k-point    38 :   0.2308 0.0769 0.2500  plane waves:    3833
 k-point    39 :   0.3077 0.0769 0.2500  plane waves:    3824
 k-point    40 :   0.3846 0.0769 0.2500  plane waves:    3814
 k-point    41 :   0.4615 0.0769 0.2500  plane waves:    3815
 k-point    42 :   0.1538 0.1538 0.2500  plane waves:    3833
 k-point    43 :   0.2308 0.1538 0.2500  plane waves:    3830
 k-point    44 :   0.3077 0.1538 0.2500  plane waves:    3815
 k-point    45 :   0.3846 0.1538 0.2500  plane waves:    3816
 k-point    46 :   0.4615 0.1538 0.2500  plane waves:    3822
 k-point    47 :   0.2308 0.2308 0.2500  plane waves:    3822
 k-point    48 :   0.3077 0.2308 0.2500  plane waves:    3814
 k-point    49 :   0.3846 0.2308 0.2500  plane waves:    3811
 k-point    50 :   0.4615 0.2308 0.2500  plane waves:    3808
 k-point    51 :   0.3077 0.3077 0.2500  plane waves:    3808
 k-point    52 :   0.3846 0.3077 0.2500  plane waves:    3820
 k-point    53 :   0.4615 0.3077 0.2500  plane waves:    3822
 k-point    54 :   0.3846 0.3846 0.2500  plane waves:    3830
 k-point    55 :   0.4615 0.3846 0.2500  plane waves:    3837
 k-point    56 :   0.4615 0.4615 0.2500  plane waves:    3829
 k-point    57 :   0.0000 0.0000 0.5000  plane waves:    3824
 k-point    58 :   0.0769 0.0000 0.5000  plane waves:    3824
 k-point    59 :   0.1538 0.0000 0.5000  plane waves:    3824
 k-point    60 :   0.2308 0.0000 0.5000  plane waves:    3834
 k-point    61 :   0.3077 0.0000 0.5000  plane waves:    3828
 k-point    62 :   0.3846 0.0000 0.5000  plane waves:    3810
 k-point    63 :   0.4615 0.0000 0.5000  plane waves:    3822
 k-point    64 :   0.0769 0.0769 0.5000  plane waves:    3826
 k-point    65 :   0.1538 0.0769 0.5000  plane waves:    3840
 k-point    66 :   0.2308 0.0769 0.5000  plane waves:    3834
 k-point    67 :   0.3077 0.0769 0.5000  plane waves:    3818
 k-point    68 :   0.3846 0.0769 0.5000  plane waves:    3814
 k-point    69 :   0.4615 0.0769 0.5000  plane waves:    3810
 k-point    70 :   0.1538 0.1538 0.5000  plane waves:    3844
 k-point    71 :   0.2308 0.1538 0.5000  plane waves:    3824
 k-point    72 :   0.3077 0.1538 0.5000  plane waves:    3800
 k-point    73 :   0.3846 0.1538 0.5000  plane waves:    3828
 k-point    74 :   0.4615 0.1538 0.5000  plane waves:    3820
 k-point    75 :   0.2308 0.2308 0.5000  plane waves:    3818
 k-point    76 :   0.3077 0.2308 0.5000  plane waves:    3822
 k-point    77 :   0.3846 0.2308 0.5000  plane waves:    3812
 k-point    78 :   0.4615 0.2308 0.5000  plane waves:    3816
 k-point    79 :   0.3077 0.3077 0.5000  plane waves:    3812
 k-point    80 :   0.3846 0.3077 0.5000  plane waves:    3830
 k-point    81 :   0.4615 0.3077 0.5000  plane waves:    3822
 k-point    82 :   0.3846 0.3846 0.5000  plane waves:    3830
 k-point    83 :   0.4615 0.3846 0.5000  plane waves:    3828
 k-point    84 :   0.4615 0.4615 0.5000  plane waves:    3834

 maximum and minimum number of plane-waves per node :      3857     3800

 maximum number of plane-waves:      3857
 maximum index in each direction: 
   IXMAX=    6   IYMAX=    6   IZMAX=   20
   IXMIN=   -7   IYMIN=   -7   IZMIN=  -20


 serial   3D FFT for wavefunctions
 parallel 3D FFT for charge:
    minimum data exchange during FFTs selected (reduces bandwidth)


 total amount of memory used by VASP MPI-rank0   231578. kBytes
=======================================================================

   base      :      30000. kBytes
   nonl-proj :      94414. kBytes
   fftplans  :        888. kBytes
   grid      :       6813. kBytes
   one-center:        373. kBytes
   wavefun   :      99090. kBytes
 
     INWAV:  cpu time      0.0001: real time      0.0001
 Broyden mixing: mesh for mixing (old mesh)
   NGX = 13   NGY = 13   NGZ = 41
  (NGX  = 56   NGY  = 56   NGZ  =168)
  gives a total of   6929 points

 initial charge density was supplied:
 charge density of overlapping atoms calculated
 number of electron     156.0000000 magnetization       1.9140000
 charge density for first step will be calculated from the start-wavefunctions


--------------------------------------------------------------------------------------------------------


 Maximum index for augmentation-charges         1097 (set IRDMAX)


--------------------------------------------------------------------------------------------------------


 First call to EWALD:  gamma=   0.340
 Maximum number of real-space cells 4x 4x 2
 Maximum number of reciprocal cells 2x 2x 5

    FEWALD:  cpu time      0.0016: real time      0.0017


--------------------------------------- Ionic step        1  -------------------------------------------




--------------------------------------- Iteration      1(   1)  ---------------------------------------


    POTLOK:  cpu time      0.0314: real time      0.0316
    SETDIJ:  cpu time      0.0128: real time      0.0133
    TRIAL :  cpu time      4.2547: real time      4.2879
    CORREC:  cpu time      0.0027: real time      0.0027
    --------------------------------------------
      LOOP:  cpu time      4.3510: real time      4.4206

 eigenvalue-minimisations  : 32256
 total energy-change (2. order) : 0.1737831E+04  (-0.9343908E+04)
 number of electron     156.0000000 magnetization       1.9140000
 augmentation part      156.0000000 magnetization       1.9140000

 Free energy of the ion-electron system (eV)
  ---------------------------------------------------
  alpha Z        PSCENC =      1198.52203918
  Ewald energy   TEWEN  =    -18667.47859193
  -Hartree energ DENC   =     -5705.75604109
  -exchange      EXHF   =         0.00000000
  -V(xc)+E(xc)   XCENC  =       659.75183898
  PAW double counting   =     20095.68525415   -20819.77341732
  entropy T*S    EENTRO =         0.00257846
  eigenvalues    EBANDS =       672.77481510
  atomic energy  EATOM  =     24304.10294433
  ---------------------------------------------------
  free energy    TOTEN  =      1737.83141986 eV

  energy without entropy =     1737.82884140  energy(sigma->0) =     1737.83056037


--------------------------------------------------------------------------------------------------------




--------------------------------------- Iteration      1(   2)  ---------------------------------------


    TRIAL :  cpu time      4.1427: real time      4.1717
    CORREC:  cpu time      0.0024: real time      0.0024
    --------------------------------------------
      LOOP:  cpu time      4.1555: real time      4.1956

 eigenvalue-minimisations  : 32416
 total energy-change (2. order) :-0.1730544E+04  (-0.1698778E+04)
 number of electron     156.0000000 magnetization       1.9140000
 augmentation part      156.0000000 magnetization       1.9140000

 Free energy of the ion-electron system (eV)
  ---------------------------------------------------
  alpha Z        PSCENC =      1198.52203918
  Ewald energy   TEWEN  =    -18667.47859193
  -Hartree energ DENC   =     -5705.75604109
  -exchange      EXHF   =         0.00000000
  -V(xc)+E(xc)   XCENC  =       659.75183898
  PAW double counting   =     20095.68525415   -20819.77341732
  entropy T*S    EENTRO =         0.00478004
  eigenvalues    EBANDS =     -1057.77160943
  atomic energy  EATOM  =     24304.10294433
  ---------------------------------------------------
  free energy    TOTEN  =         7.28719691 eV

  energy without entropy =        7.28241687  energy(sigma->0) =        7.28560356


--------------------------------------------------------------------------------------------------------




--------------------------------------- Iteration      1(   3)  ---------------------------------------


    TRIAL :  cpu time      5.0014: real time      5.0355
    CORREC:  cpu time      0.0024: real time      0.0024
    --------------------------------------------
      LOOP:  cpu time      5.0258: real time      5.0601

 eigenvalue-minimisations  : 38976
 total energy-change (2. order) :-0.1099866E+03  (-0.1088534E+03)
 number of electron     156.0000000 magnetization       1.9140000
 augmentation part      156.0000000 magnetization       1.9140000

 Free energy of the ion-electron system (eV)
  ---------------------------------------------------
  alpha Z        PSCENC =      1198.52203918
  Ewald energy   TEWEN  =    -18667.47859193
  -Hartree energ DENC   =     -5705.75604109
  -exchange      EXHF   =         0.00000000
  -V(xc)+E(xc)   XCENC  =       659.75183898
  PAW double counting   =     20095.68525415   -20819.77341732
  entropy T*S    EENTRO =         0.01194662
  eigenvalues    EBANDS =     -1167.76535733
  atomic energy  EATOM  =     24304.10294433
  ---------------------------------------------------
  free energy    TOTEN  =      -102.69938441 eV

  energy without entropy =     -102.71133104  energy(sigma->0) =     -102.70336662


--------------------------------------------------------------------------------------------------------




--------------------------------------- Iteration      1(   4)  ---------------------------------------


    TRIAL :  cpu time      4.2863: real time      4.3163
    CORREC:  cpu time      0.0024: real time      0.0024
    --------------------------------------------
      LOOP:  cpu time      4.2992: real time      4.3404

 eigenvalue-minimisations  : 32896
 total energy-change (2. order) :-0.2171610E+01  (-0.2169924E+01)
 number of electron     156.0000000 magnetization       1.9140000
 augmentation part      156.0000000 magnetization       1.9140000

 Free energy of the ion-electron system (eV)
  ---------------------------------------------------
  alpha Z        PSCENC =      1198.52203918
  Ewald energy   TEWEN  =    -18667.47859193
  -Hartree energ DENC   =     -5705.75604109
  -exchange      EXHF   =         0.00000000
  -V(xc)+E(xc)   XCENC  =       659.75183898
  PAW double counting   =     20095.68525415   -20819.77341732
  entropy T*S    EENTRO =         0.01183189
  eigenvalues    EBANDS =     -1169.93685235
  atomic energy  EATOM  =     24304.10294433
  ---------------------------------------------------
  free energy    TOTEN  =      -104.87099416 eV

  energy without entropy =     -104.88282606  energy(sigma->0) =     -104.87493813


--------------------------------------------------------------------------------------------------------




--------------------------------------- Iteration      1(   5)  ---------------------------------------


    TRIAL :  cpu time      5.3693: real time      5.4056
    CORREC:  cpu time      0.0025: real time      0.0025
    CHARGE:  cpu time      0.1559: real time      0.1572
    --------------------------------------------
      LOOP:  cpu time      5.5364: real time      5.5869

 eigenvalue-minimisations  : 41088
 total energy-change (2. order) :-0.4695708E-01  (-0.4695487E-01)
 number of electron     155.9999737 magnetization       1.4245493
 augmentation part       79.2651493 magnetization       1.0543235

 Free energy of the ion-electron system (eV)
  ---------------------------------------------------
  alpha Z        PSCENC =      1198.52203918
  Ewald energy   TEWEN  =    -18667.47859193
  -Hartree energ DENC   =     -5705.75604109
  -exchange      EXHF   =         0.00000000
  -V(xc)+E(xc)   XCENC  =       659.75183898
  PAW double counting   =     20095.68525415   -20819.77341732
  entropy T*S    EENTRO =         0.01180758
  eigenvalues    EBANDS =     -1169.98378511
  atomic energy  EATOM  =     24304.10294433
  ---------------------------------------------------
  free energy    TOTEN  =      -104.91795124 eV

  energy without entropy =     -104.92975881  energy(sigma->0) =     -104.92188710


--------------------------------------------------------------------------------------------------------




--------------------------------------- Iteration      1(   6)  ---------------------------------------


    POTLOK:  cpu time      0.0216: real time      0.0219
    SETDIJ:  cpu time      0.0080: real time      0.0080
    TRIAL :  cpu time      1.9490: real time      1.9689
    CORREC:  cpu time      0.7671: real time      0.7743
    CHARGE:  cpu time      0.1531: real time      0.1539
    --------------------------------------------
      LOOP:  cpu time      2.9099: real time      2.9481

 eigenvalue-minimisations  :     0
 total energy-change (2. order) : 0.4769703E+02  (-0.2435195E+02)
 number of electron     155.9999729 magnetization       1.5329097
 augmentation part       82.4306515 magnetization       1.1881989

 Free energy of the ion-electron system (eV)
  ---------------------------------------------------
  alpha Z        PSCENC =      1198.52203918
  Ewald energy   TEWEN  =    -18667.47859193
  -Hartree energ DENC   =     -4659.50844846
  -exchange      EXHF   =         0.00000000
  -V(xc)+E(xc)   XCENC  =       614.98432705
  PAW double counting   =     21976.17395279   -22648.43278345
  entropy T*S    EENTRO =         0.01408030
  eigenvalues    EBANDS =     -2175.59617063
  atomic energy  EATOM  =     24304.10294433
  ---------------------------------------------------
  free energy    TOTEN  =       -57.22092354 eV

  energy without entropy =      -57.23500384  energy(sigma->0) =      -57.22561697


--------------------------------------------------------------------------------------------------------




--------------------------------------- Iteration      1(   7)  ---------------------------------------


    POTLOK:  cpu time      0.0219: real time      0.0221
    SETDIJ:  cpu time      0.0075: real time      0.0075
    TRIAL :  cpu time      1.8291: real time      1.8476
    CORREC:  cpu time      0.7568: real time      0.7648
    CHARGE:  cpu time      0.1502: real time      0.1510
    --------------------------------------------
      LOOP:  cpu time      2.7770: real time      2.8151

 eigenvalue-minimisations  :     0
 total energy-change (2. order) :-0.2653245E+02  (-0.4050623E+01)
 number of electron     155.9999726 magnetization       1.5387588
 augmentation part       83.3897954 magnetization       1.1426887

 Free energy of the ion-electron system (eV)
  ---------------------------------------------------
  alpha Z        PSCENC =      1198.52203918
  Ewald energy   TEWEN  =    -18667.47859193
  -Hartree energ DENC   =     -5072.55558856
  -exchange      EXHF   =         0.00000000
  -V(xc)+E(xc)   XCENC  =       632.19810909
  PAW double counting   =     22313.72646573   -23062.61727969
  entropy T*S    EENTRO =         0.01092769
  eigenvalues    EBANDS =     -1729.66555377
  atomic energy  EATOM  =     24304.10294433
  ---------------------------------------------------
  free energy    TOTEN  =       -83.75337533 eV

  energy without entropy =      -83.76430302  energy(sigma->0) =      -83.75701789


--------------------------------------------------------------------------------------------------------




--------------------------------------- Iteration      1(   8)  ---------------------------------------


    POTLOK:  cpu time      0.0222: real time      0.0223
    SETDIJ:  cpu time      0.0074: real time      0.0074
    TRIAL :  cpu time      1.8271: real time      1.8449
    CORREC:  cpu time      0.7531: real time      0.7612
    CHARGE:  cpu time      0.1511: real time      0.1521
    --------------------------------------------
      LOOP:  cpu time      2.7726: real time      2.8107

 eigenvalue-minimisations  :     0
 total energy-change (2. order) :-0.3916382E+01  (-0.2342808E+01)
 number of electron     155.9999723 magnetization       1.5270761
 augmentation part       84.2234543 magnetization       1.1762228

 Free energy of the ion-electron system (eV)
  ---------------------------------------------------
  alpha Z        PSCENC =      1198.52203918
  Ewald energy   TEWEN  =    -18667.47859193
  -Hartree energ DENC   =     -5197.89639529
  -exchange      EXHF   =         0.00000000
  -V(xc)+E(xc)   XCENC  =       637.47291721
  PAW double counting   =     22467.78567483   -23237.23949532
  entropy T*S    EENTRO =         0.01447610
  eigenvalues    EBANDS =     -1592.94977790
  atomic energy  EATOM  =     24304.10294433
  ---------------------------------------------------
  free energy    TOTEN  =       -87.66975721 eV

  energy without entropy =      -87.68423331  energy(sigma->0) =      -87.67458258


--------------------------------------------------------------------------------------------------------




--------------------------------------- Iteration      1(   9)  ---------------------------------------


    POTLOK:  cpu time      0.0216: real time      0.0219
    SETDIJ:  cpu time      0.0080: real time      0.0081
    TRIAL :  cpu time      1.8938: real time      1.9121
    CORREC:  cpu time      2.2456: real time      2.2597
    CHARGE:  cpu time      2.0983: real time      2.1074
    --------------------------------------------
      LOOP:  cpu time      6.2779: real time      6.3324

 eigenvalue-minimisations  :     0
 total energy-change (2. order) :-0.2285146E+01  (-0.1611456E+01)
 number of electron     155.9999724 magnetization       1.5815424
 augmentation part       84.6804743 magnetization       1.2297033

 Free energy of the ion-electron system (eV)
  ---------------------------------------------------
  alpha Z        PSCENC =      1198.52203918
  Ewald energy   TEWEN  =    -18667.47859193
  -Hartree energ DENC   =     -5302.72293985
  -exchange      EXHF   =         0.00000000
  -V(xc)+E(xc)   XCENC  =       642.10177062
  PAW double counting   =     22624.65406009   -23408.70975382
  entropy T*S    EENTRO =         0.01571835
  eigenvalues    EBANDS =     -1480.43890742
  atomic energy  EATOM  =     24304.10294433
  ---------------------------------------------------
  free energy    TOTEN  =       -89.95490272 eV

  energy without entropy =      -89.97062107  energy(sigma->0) =      -89.96014217


--------------------------------------------------------------------------------------------------------




--------------------------------------- Iteration      1(  10)  ---------------------------------------


    POTLOK:  cpu time      0.0230: real time      0.0232
    SETDIJ:  cpu time      0.0079: real time      0.0079
    TRIAL :  cpu time      2.1152: real time      2.1417
    CORREC:  cpu time      1.3723: real time      1.3854
    CHARGE:  cpu time      0.1521: real time      0.1530
    --------------------------------------------
      LOOP:  cpu time      3.6849: real time      3.7346

 eigenvalue-minimisations  :     0
 total energy-change (2. order) :-0.1614733E+01  (-0.2094982E+00)
 number of electron     155.9999724 magnetization       1.5990177
 augmentation part       84.6724721 magnetization       1.2304015

 Free energy of the ion-electron system (eV)
  ---------------------------------------------------
  alpha Z        PSCENC =      1198.52203918
  Ewald energy   TEWEN  =    -18667.47859193
  -Hartree energ DENC   =     -5345.30166363
  -exchange      EXHF   =         0.00000000
  -V(xc)+E(xc)   XCENC  =       644.37682906
  PAW double counting   =     22699.47427104   -23477.90851218
  entropy T*S    EENTRO =         0.01507367
  eigenvalues    EBANDS =     -1447.37266990
  atomic energy  EATOM  =     24304.10294433
  ---------------------------------------------------
  free energy    TOTEN  =       -91.56963568 eV

  energy without entropy =      -91.58470935  energy(sigma->0) =      -91.57466023


--------------------------------------------------------------------------------------------------------




--------------------------------------- Iteration      1(  11)  ---------------------------------------


    POTLOK:  cpu time      0.0221: real time      0.0223
    SETDIJ:  cpu time      0.0099: real time      0.0100
    TRIAL :  cpu time      1.9202: real time      1.9394
    CORREC:  cpu time      0.7563: real time      0.7645
    CHARGE:  cpu time      0.1503: real time      0.1511
    --------------------------------------------
      LOOP:  cpu time      2.8697: real time      2.9089

 eigenvalue-minimisations  :     0
 total energy-change (2. order) :-0.2045260E+00  (-0.2618449E+00)
 number of electron     155.9999725 magnetization       1.5933331
 augmentation part       84.6047996 magnetization       1.2423645

 Free energy of the ion-electron system (eV)
  ---------------------------------------------------
  alpha Z        PSCENC =      1198.52203918
  Ewald energy   TEWEN  =    -18667.47859193
  -Hartree energ DENC   =     -5343.42734230
  -exchange      EXHF   =         0.00000000
  -V(xc)+E(xc)   XCENC  =       644.35917752
  PAW double counting   =     22695.51116119   -23470.58537670
  entropy T*S    EENTRO =         0.01535862
  eigenvalues    EBANDS =     -1452.79324662
  atomic energy  EATOM  =     24304.10294433
  ---------------------------------------------------
  free energy    TOTEN  =       -91.77416167 eV

  energy without entropy =      -91.78952029  energy(sigma->0) =      -91.77928121


--------------------------------------------------------------------------------------------------------




--------------------------------------- Iteration      1(  12)  ---------------------------------------


    POTLOK:  cpu time      0.0460: real time      0.0464
    SETDIJ:  cpu time      0.0758: real time      0.0762
    TRIAL :  cpu time      1.8284: real time      1.8466
    CORREC:  cpu time      0.7544: real time      0.7625
    CHARGE:  cpu time      0.1503: real time      0.1513
    --------------------------------------------
      LOOP:  cpu time      2.8672: real time      2.9178

 eigenvalue-minimisations  :     0
 total energy-change (2. order) :-0.2516809E+00  (-0.4214918E+00)
 number of electron     155.9999726 magnetization       1.6431124
 augmentation part       84.5125373 magnetization       1.2913296

 Free energy of the ion-electron system (eV)
  ---------------------------------------------------
  alpha Z        PSCENC =      1198.52203918
  Ewald energy   TEWEN  =    -18667.47859193
  -Hartree energ DENC   =     -5336.32140053
  -exchange      EXHF   =         0.00000000
  -V(xc)+E(xc)   XCENC  =       644.14694390
  PAW double counting   =     22680.46955851   -23449.17520704
  entropy T*S    EENTRO =         0.01661347
  eigenvalues    EBANDS =     -1466.30748762
  atomic energy  EATOM  =     24304.10294433
  ---------------------------------------------------
  free energy    TOTEN  =       -92.02584259 eV

  energy without entropy =      -92.04245606  energy(sigma->0) =      -92.03138041


--------------------------------------------------------------------------------------------------------




--------------------------------------- Iteration      1(  13)  ---------------------------------------


    POTLOK:  cpu time      0.0218: real time      0.0220
    SETDIJ:  cpu time      0.0080: real time      0.0081
    TRIAL :  cpu time      1.8336: real time      1.8522
    CORREC:  cpu time      0.7545: real time      0.7628
    CHARGE:  cpu time      0.1499: real time      0.1507
    --------------------------------------------
      LOOP:  cpu time      2.7780: real time      2.8285

 eigenvalue-minimisations  :     0
 total energy-change (2. order) :-0.4199960E+00  (-0.1254278E+00)
 number of electron     155.9999726 magnetization       1.6661330
 augmentation part       84.6019096 magnetization       1.3064498

 Free energy of the ion-electron system (eV)
  ---------------------------------------------------
  alpha Z        PSCENC =      1198.52203918
  Ewald energy   TEWEN  =    -18667.47859193
  -Hartree energ DENC   =     -5336.89544998
  -exchange      EXHF   =         0.00000000
  -V(xc)+E(xc)   XCENC  =       644.16061814
  PAW double counting   =     22674.96518527   -23434.10787006
  entropy T*S    EENTRO =         0.01720846
  eigenvalues    EBANDS =     -1475.73132703
  atomic energy  EATOM  =     24304.10294433
  ---------------------------------------------------
  free energy    TOTEN  =       -92.44583860 eV

  energy without entropy =      -92.46304706  energy(sigma->0) =      -92.45157475


--------------------------------------------------------------------------------------------------------




--------------------------------------- Iteration      1(  14)  ---------------------------------------


    POTLOK:  cpu time      0.0214: real time      0.0216
    SETDIJ:  cpu time      0.0080: real time      0.0080
    TRIAL :  cpu time      1.8915: real time      1.9099
    CORREC:  cpu time      0.7559: real time      0.7639
    CHARGE:  cpu time      0.1506: real time      0.1515
    --------------------------------------------
      LOOP:  cpu time      2.8383: real time      2.8773

 eigenvalue-minimisations  :     0
 total energy-change (2. order) :-0.1243071E+00  (-0.9100073E-01)
 number of electron     155.9999726 magnetization       1.6607252
 augmentation part       84.6921214 magnetization       1.3170189

 Free energy of the ion-electron system (eV)
  ---------------------------------------------------
  alpha Z        PSCENC =      1198.52203918
  Ewald energy   TEWEN  =    -18667.47859193
  -Hartree energ DENC   =     -5354.18464450
  -exchange      EXHF   =         0.00000000
  -V(xc)+E(xc)   XCENC  =       644.88061252
  PAW double counting   =     22697.19454604   -23457.28878421
  entropy T*S    EENTRO =         0.01755069
  eigenvalues    EBANDS =     -1458.33547555
  atomic energy  EATOM  =     24304.10294433
  ---------------------------------------------------
  free energy    TOTEN  =       -92.57014566 eV

  energy without entropy =      -92.58769636  energy(sigma->0) =      -92.57599590


--------------------------------------------------------------------------------------------------------




--------------------------------------- Iteration      1(  15)  ---------------------------------------


    POTLOK:  cpu time      0.0214: real time      0.0216
    SETDIJ:  cpu time      0.0080: real time      0.0080
    TRIAL :  cpu time      1.9759: real time      1.9950
    CORREC:  cpu time      0.7632: real time      0.7716
    CHARGE:  cpu time      0.1517: real time      0.1527
    --------------------------------------------
      LOOP:  cpu time      2.9294: real time      2.9714

 eigenvalue-minimisations  :     0
 total energy-change (2. order) :-0.8675702E-01  (-0.7188232E-01)
 number of electron     155.9999727 magnetization       1.6951131
 augmentation part       84.7572402 magnetization       1.3453356

 Free energy of the ion-electron system (eV)
  ---------------------------------------------------
  alpha Z        PSCENC =      1198.52203918
  Ewald energy   TEWEN  =    -18667.47859193
  -Hartree energ DENC   =     -5368.99885339
  -exchange      EXHF   =         0.00000000
  -V(xc)+E(xc)   XCENC  =       645.53688078
  PAW double counting   =     22715.48237275   -23477.00494394
  entropy T*S    EENTRO =         0.01647406
  eigenvalues    EBANDS =     -1442.83630115
  atomic energy  EATOM  =     24304.10294433
  ---------------------------------------------------
  free energy    TOTEN  =       -92.65690268 eV

  energy without entropy =      -92.67337674  energy(sigma->0) =      -92.66239403


--------------------------------------------------------------------------------------------------------




--------------------------------------- Iteration      1(  16)  ---------------------------------------


    POTLOK:  cpu time      0.0214: real time      0.0216
    SETDIJ:  cpu time      0.0083: real time      0.0083
    TRIAL :  cpu time      1.8321: real time      1.8505
    CORREC:  cpu time      0.7568: real time      0.7649
    CHARGE:  cpu time      0.1497: real time      0.1505
    --------------------------------------------
      LOOP:  cpu time      2.7904: real time      2.8182

 eigenvalue-minimisations  :     0
 total energy-change (2. order) :-0.7210924E-01  (-0.3607692E-01)
 number of electron     155.9999727 magnetization       1.7162409
 augmentation part       84.7668244 magnetization       1.3597589

 Free energy of the ion-electron system (eV)
  ---------------------------------------------------
  alpha Z        PSCENC =      1198.52203918
  Ewald energy   TEWEN  =    -18667.47859193
  -Hartree energ DENC   =     -5374.63121051
  -exchange      EXHF   =         0.00000000
  -V(xc)+E(xc)   XCENC  =       645.89957770
  PAW double counting   =     22713.45414424   -23475.77794366
  entropy T*S    EENTRO =         0.01569323
  eigenvalues    EBANDS =     -1436.83644532
  atomic energy  EATOM  =     24304.10294433
  ---------------------------------------------------
  free energy    TOTEN  =       -92.72901192 eV

  energy without entropy =      -92.74470515  energy(sigma->0) =      -92.73424300


--------------------------------------------------------------------------------------------------------




--------------------------------------- Iteration      1(  17)  ---------------------------------------


    POTLOK:  cpu time      0.0213: real time      0.0215
    SETDIJ:  cpu time      0.0082: real time      0.0083
    TRIAL :  cpu time      1.8597: real time      1.8787
    CORREC:  cpu time      0.7548: real time      0.7633
    CHARGE:  cpu time      0.2411: real time      0.2423
    --------------------------------------------
      LOOP:  cpu time      2.9078: real time      2.9370

 eigenvalue-minimisations  :     0
 total energy-change (2. order) :-0.3568185E-01  (-0.3922778E-01)
 number of electron     155.9999727 magnetization       1.7247106
[...]
     29       4.8457      1.00000
     30       4.8581      1.00000
     31       5.0374      1.00000
     32       5.2888      1.00000
     33       5.3553      1.00000
     34       5.5145      1.00000
     35       5.7089      1.00000
     36       5.7271      1.00000
     37       5.9369      1.00000
     38       6.0243      1.00000
     39       6.0251      1.00000
     40       6.5899      1.00000
     41       7.0240      1.00000
     42       7.5482      1.00000
     43       7.5796      1.00000
     44       7.7824      1.00000
     45       7.7825      1.00000
     46       7.9691      1.00000
     47       8.0639      1.00000
     48       8.0927      1.00000
     49       8.1345      1.00000
     50       8.2185      1.00000
     51       8.3165      1.00000
     52       8.3739      1.00000
     53       8.4556      1.00000
     54       8.5372      1.00000
     55       8.5554      1.00000
     56       8.5896      1.00000
     57       8.6471      1.00000
     58       8.8321      1.00000
     59       8.8821      1.00000
     60       9.3963      1.00000
     61       9.4585      1.00000
     62       9.5370      1.00000
     63       9.6324      1.00000
     64       9.7454      1.00000
     65       9.9568      1.00000
     66       9.9817      1.00000
     67      10.0316      1.00000
     68      10.0940      1.00000
     69      10.1305      1.00000
     70      10.1426      1.00000
     71      10.1870      1.00000
     72      10.3136      1.00000
     73      10.5074      1.00001
     74      10.6197      1.00040
     75      10.6469      1.00076
     76      10.8151      1.01657
     77      10.9342      1.03467
     78      11.0657      0.86778
     79      11.0978      0.77120
     80      11.5287     -0.01360
     81      11.5999     -0.00420
     82      11.6559     -0.00058
     83      11.7313     -0.00022
     84      11.7809     -0.00006
     85      11.9273     -0.00000
     86      12.0369     -0.00000
     87      12.0866     -0.00000
     88      12.4909     -0.00000
     89      12.5778     -0.00000
     90      12.7041     -0.00000
     91      12.7874     -0.00000
     92      12.8011     -0.00000
     93      13.0593     -0.00000
     94      13.4436     -0.00000
     95      13.5545     -0.00000
     96      13.7972     -0.00000


--------------------------------------------------------------------------------------------------------


 soft charge-density along one line, spin component           1
         0         1         2         3         4         5         6         7         8         9
 total charge-density along one line
 
 soft charge-density along one line, spin component           2
         0         1         2         3         4         5         6         7         8         9
 total charge-density along one line
 
 pseudopotential strength for first ion, spin component:           1
-41.890  -0.000  -0.000   6.324   0.000   0.000   0.000  -0.000
 -0.000 -41.884  -0.000   0.000   6.321   0.000  -0.000   0.000
 -0.000  -0.000 -41.828   0.000   0.000   6.298   0.000  -0.000
  6.324   0.000   0.000   5.969   0.000   0.000  -0.000   0.000
  0.000   6.321   0.000   0.000   5.970   0.000   0.000  -0.000
  0.000   0.000   6.298   0.000   0.000   5.974  -0.000   0.000
  0.000  -0.000   0.000  -0.000   0.000  -0.000   0.395  -0.000
 -0.000   0.000  -0.000   0.000  -0.000   0.000  -0.000   0.420
 -0.000  -0.000   0.000   0.000   0.000   0.000   0.000  -0.000
 -0.000  -0.000  -0.000   0.000   0.000   0.000  -0.000  -0.000
 -0.000  -0.000  -0.000   0.000   0.000  -0.000  -0.000   0.000
  0.000  -0.000   0.000   0.000   0.000  -0.000  -0.159  -0.000
 -0.000   0.000  -0.000   0.000  -0.000   0.000  -0.000  -0.133
 -0.000  -0.000   0.000   0.000   0.000   0.000   0.000  -0.000
 -0.000   0.000  -0.000   0.000  -0.000   0.000  -0.000  -0.000
 -0.000  -0.000  -0.000   0.000   0.000  -0.000  -0.000   0.000
 -0.000   0.000   0.000  -0.000   0.000   0.000   0.000   0.000
 -0.000   0.000   0.000  -0.000   0.000   0.000   0.000   0.000
 pseudopotential strength for first ion, spin component:           2
-43.917  -0.000  -0.000   7.178   0.000   0.000   0.000  -0.000
 -0.000 -43.903  -0.000   0.000   7.172   0.000  -0.000   0.000
 -0.000  -0.000 -43.773   0.000   0.000   7.120   0.000  -0.000
  7.178   0.000   0.000   5.734   0.000   0.000  -0.000   0.000
  0.000   7.172   0.000   0.000   5.735   0.000   0.000  -0.000
  0.000   0.000   7.120   0.000   0.000   5.745  -0.000   0.000
  0.000  -0.000   0.000  -0.000   0.000  -0.000  -1.152  -0.000
 -0.000   0.000  -0.000   0.000  -0.000   0.000  -0.000  -1.311
 -0.000  -0.000  -0.000   0.000   0.000   0.000   0.000  -0.000
 -0.000  -0.000  -0.000   0.000  -0.000   0.000  -0.000  -0.000
 -0.000  -0.000   0.000   0.000   0.000  -0.000  -0.000   0.000
  0.000  -0.000   0.000  -0.000   0.000  -0.000  -1.681  -0.000
 -0.000   0.000  -0.000   0.000  -0.000   0.000  -0.000  -1.836
 -0.000  -0.000   0.000   0.000   0.000   0.000   0.000  -0.000
 -0.000   0.000  -0.000   0.000  -0.000   0.000  -0.000  -0.000
 -0.000  -0.000   0.000   0.000   0.000  -0.000  -0.000   0.000
 -0.000   0.000  -0.000  -0.000   0.000  -0.000   0.000   0.000
 -0.000   0.000  -0.000  -0.000   0.000  -0.000   0.000   0.000
 total augmentation occupancy for first ion, spin component:           1
  1.992  -0.000   0.000  -0.024   0.000   0.000   0.000   0.000   0.000  -0.000   0.000  -0.000  -0.000   0.000   0.000   0.000
 -0.000   1.992   0.000  -0.000  -0.024   0.000   0.000   0.000   0.000   0.000  -0.000   0.000   0.000  -0.000   0.000   0.000
  0.000   0.000   1.992   0.000   0.000  -0.024  -0.000   0.000   0.000  -0.000  -0.000   0.000   0.000   0.000   0.000  -0.000
 -0.024  -0.000   0.000   0.203   0.000   0.000   0.000   0.000   0.000   0.000   0.000   0.000  -0.000   0.000  -0.000   0.000
  0.000  -0.024   0.000   0.000   0.205   0.000   0.000   0.000   0.000   0.000  -0.000  -0.000   0.000  -0.000   0.000   0.000
  0.000   0.000  -0.024   0.000   0.000   0.194  -0.000   0.000   0.000   0.000   0.000   0.000   0.000   0.000  -0.000   0.000
  0.000   0.000  -0.000   0.000   0.000  -0.000   2.620  -0.000   0.000   0.000   0.000  -1.588  -0.000  -0.000   0.000   0.000
  0.000   0.000   0.000   0.000   0.000   0.000  -0.000   3.158   0.000   0.000   0.000   0.000  -2.381   0.000   0.000   0.000
  0.000   0.000   0.000   0.000   0.000   0.000   0.000   0.000   3.315   0.000   0.200  -0.000  -0.000  -2.062  -0.000  -0.073
 -0.000   0.000  -0.000   0.000   0.000   0.000   0.000   0.000   0.000   2.800  -0.000   0.000   0.000   0.000  -1.708   0.000
  0.000  -0.000  -0.000   0.000  -0.000   0.000   0.000   0.000   0.200  -0.000   3.261   0.000   0.000  -0.074  -0.000  -2.061
 -0.000   0.000   0.000   0.000  -0.000   0.000  -1.588   0.000  -0.000   0.000   0.000   1.952   0.000   0.000   0.000  -0.000
 -0.000   0.000   0.000  -0.000   0.000   0.000  -0.000  -2.381  -0.000   0.000   0.000   0.000   2.835   0.000   0.000   0.000
  0.000  -0.000   0.000   0.000  -0.000   0.000  -0.000   0.000  -2.062   0.000  -0.074   0.000   0.000   2.119   0.000  -0.005
  0.000   0.000   0.000  -0.000   0.000  -0.000   0.000   0.000  -0.000  -1.708  -0.000   0.000   0.000   0.000   2.066   0.000
  0.000   0.000  -0.000   0.000   0.000   0.000   0.000   0.000  -0.073   0.000  -2.061  -0.000   0.000  -0.005   0.000   2.154
 -0.000   0.000   0.000   0.000  -0.000   0.000   0.000   0.000  -0.093   0.000   0.170   0.000   0.000   0.077   0.000  -0.111
  0.000  -0.000   0.000   0.000   0.000  -0.000   0.000   0.000   0.010   0.000  -0.016   0.000   0.000  -0.007  -0.000   0.010
 total augmentation occupancy for first ion, spin component:           2
  0.002  -0.000   0.000   0.008   0.000  -0.000  -0.000   0.000   0.000   0.000   0.000  -0.000  -0.000   0.000   0.000   0.000
 -0.000   0.002   0.000   0.000   0.008   0.000  -0.000  -0.000  -0.000   0.000  -0.000  -0.000   0.000   0.000   0.000   0.000
  0.000   0.000   0.002   0.000   0.000   0.009   0.000   0.000   0.000  -0.000   0.000   0.000  -0.000   0.000   0.000   0.000
  0.008   0.000   0.000  -0.002   0.000   0.000   0.000  -0.000   0.000   0.000   0.000   0.000  -0.000   0.000   0.000   0.000
  0.000   0.008   0.000   0.000   0.008  -0.000   0.000  -0.000  -0.000   0.000   0.000   0.000   0.000   0.000   0.000   0.000
 -0.000   0.000   0.009   0.000  -0.000   0.005   0.000   0.000  -0.000   0.000   0.000   0.000  -0.000   0.000   0.000   0.000
 -0.000  -0.000   0.000   0.000   0.000   0.000  -1.882  -0.000  -0.000   0.000  -0.000   0.782   0.000   0.000   0.000   0.000
  0.000  -0.000   0.000  -0.000  -0.000   0.000  -0.000  -1.952   0.000   0.000   0.000   0.000   0.615   0.000   0.000   0.000
  0.000  -0.000   0.000   0.000  -0.000  -0.000  -0.000   0.000  -2.385  -0.000  -0.089  -0.000   0.000   0.990   0.000   0.126
  0.000   0.000  -0.000   0.000   0.000   0.000   0.000   0.000  -0.000  -1.992  -0.000   0.000   0.000   0.000   0.850   0.000
  0.000  -0.000   0.000   0.000   0.000   0.000  -0.000   0.000  -0.089  -0.000  -2.409   0.000   0.000   0.126   0.000   0.951
 -0.000  -0.000   0.000   0.000   0.000   0.000   0.782   0.000  -0.000   0.000   0.000  -0.117  -0.000   0.000   0.000   0.000
 -0.000   0.000  -0.000  -0.000   0.000  -0.000   0.000   0.615   0.000   0.000   0.000  -0.000   0.116   0.000   0.000   0.000
  0.000   0.000   0.000   0.000   0.000   0.000   0.000   0.000   0.990   0.000   0.126   0.000   0.000  -0.251   0.000  -0.140
  0.000   0.000   0.000   0.000   0.000   0.000   0.000   0.000   0.000   0.850   0.000   0.000   0.000   0.000  -0.131   0.000
  0.000   0.000   0.000   0.000   0.000   0.000   0.000   0.000   0.126   0.000   0.951   0.000   0.000  -0.140   0.000  -0.173
  0.000   0.000   0.000   0.000   0.000   0.000   0.000   0.000  -0.020  -0.000  -0.028   0.000   0.000   0.011   0.000   0.047
  0.000  -0.000   0.000  -0.000   0.000   0.000   0.000   0.000  -0.004  -0.000   0.008   0.000   0.000   0.001  -0.000  -0.002


------------------------ aborting loop because EDIFF is reached ----------------------------------------





 total charge

# of ion       s       p       d       tot
------------------------------------------
    1        0.374   6.377   6.110  12.861
    2        0.376   6.384   6.093  12.853
    3        0.376   6.384   6.093  12.853
    4        0.379   6.388   6.077  12.844
    5        0.379   6.388   6.076  12.844
    6        0.375   6.382   6.100  12.856
    7        0.374   6.377   6.110  12.861
    8        0.376   6.384   6.093  12.853
    9        0.376   6.384   6.093  12.853
   10        0.821   0.809   8.067   9.697
   11        0.821   0.809   8.067   9.696
   12        0.809   0.822   8.065   9.696
--------------------------------------------------
tot          5.834  59.889  79.044 144.766



 magnetization (x)

# of ion       s       p       d       tot
------------------------------------------
    1       -0.004   0.009  -2.336  -2.331
    2        0.008   0.004   2.204   2.216
    3        0.008   0.004   2.202   2.214
    4       -0.014  -0.024  -2.287  -2.326
    5       -0.014  -0.024  -2.288  -2.327
    6        0.002  -0.016   2.375   2.361
    7       -0.004   0.009  -2.336  -2.331
    8        0.008   0.004   2.204   2.216
    9        0.008   0.004   2.202   2.214
   10        0.009   0.021  -0.118  -0.087
   11        0.009   0.021  -0.117  -0.087
   12       -0.033  -0.084   0.301   0.184
--------------------------------------------------
tot         -0.018  -0.071   2.005   1.915
 
    FORLOC:  cpu time      0.0009: real time      0.0009
    FORNL :  cpu time      0.5108: real time      0.5136
    STRESS:  cpu time      3.8715: real time      3.9032
    FORCOR:  cpu time      0.0202: real time      0.0204
    OFIELD:  cpu time      0.0001: real time      0.0001

  FORCE on cell =-STRESS in cart. coord.  units (eV):
  Direction    XX          YY          ZZ          XY          YZ          ZX
  --------------------------------------------------------------------------------------
  Alpha Z  1198.52204  1198.52204  1198.52204
  Ewald   -6219.18114 -6219.18114 -6229.13571    -0.00000    -0.00000    -0.00000
  Hartree  1792.20994  1792.20994  1780.67495    -0.00000    -0.00000    -0.00000
  E(xc)    -945.96493  -945.96493  -945.90684    -0.00000    -0.00000    -0.00000
  Local    1239.49976  1239.49976  1268.25106    -0.00000     0.00000    -0.00000
  n-local  -196.99404  -209.89226  -202.68336    15.84197     0.11872     0.09322
  augment  1437.41206  1437.41206  1432.21699     0.00000     0.00000    -0.00000
  Kinetic  1725.31174  1703.09674  1711.35214     4.75037     0.30029     0.87637
  Fock        0.00000     0.00000     0.00000     0.00000     0.00000     0.00000
  -------------------------------------------------------------------------------------
  Total      13.25882    13.25882    13.29127     0.00000     0.00000     0.00000
  in kB     149.59849   149.59849   149.96460     0.00000     0.00000     0.00000
  external pressure =      149.72 kB  Pullay stress =        0.00 kB


 VOLUME and BASIS-vectors are now :
 -----------------------------------------------------------------------------
  energy-cutoff  :      520.00
  volume of cell :      142.00
      direct lattice vectors                 reciprocal lattice vectors
     3.608246294  0.000000000  0.000000000     0.277142944  0.000000000  0.000000000
     0.000000000  3.608246294  0.000000000     0.000000000  0.277142944  0.000000000
     0.000000000  0.000000000 10.906766009     0.000000000  0.000000000  0.091686206

  length of vectors
     3.608246294  3.608246294 10.906766009     0.277142944  0.277142944  0.091686206


 FORCES acting on ions:
    Electron-Ion                     Ewald-Force                    Non-Local-Force
 -----------------------------------------------------------------------------------------------
   -.961E-13 0.976E-12 -.821E+00   -.932E-14 -.481E-14 0.819E+00   -.555E-21 -.266E-23 0.466E-02
   -.966E-13 0.117E-11 -.960E+01   0.831E-14 -.628E-14 0.108E+02   0.169E-18 -.394E-18 -.115E+01
   -.925E-13 0.248E-11 0.105E+02   0.443E-14 -.198E-13 -.116E+02   -.399E-18 -.439E-18 0.115E+01
   0.105E-11 0.692E-11 0.283E+02   0.511E-13 -.526E-13 -.269E+02   -.504E-18 -.116E-17 -.141E+01
   0.105E-11 0.679E-11 -.297E+02   0.489E-14 -.172E-13 0.283E+02   0.437E-18 -.791E-18 0.142E+01
   0.105E-11 0.667E-11 0.139E+01   -.102E-13 -.388E-13 -.138E+01   -.439E-21 -.706E-21 -.771E-02
   0.105E-11 -.654E-13 -.821E+00   0.541E-14 -.427E-13 0.819E+00   -.244E-21 0.971E-21 0.466E-02
   0.105E-11 -.111E-12 -.960E+01   -.176E-14 0.141E-13 0.108E+02   0.436E-18 -.222E-18 -.115E+01
   0.106E-11 -.104E-12 0.105E+02   -.411E-14 -.241E-13 -.116E+02   -.388E-18 0.144E-18 0.115E+01
   -.612E-13 -.945E-13 -.282E+01   -.148E-13 0.819E-13 0.280E+01   -.617E-19 0.148E-17 0.666E-01
   -.576E-13 0.532E-13 0.208E+01   -.381E-15 0.314E-13 -.205E+01   0.601E-18 -.572E-20 -.654E-01
   -.598E-13 -.409E-13 0.712E+00   0.164E-13 0.624E-13 -.712E+00   0.999E-21 0.111E-20 -.122E-02
 -----------------------------------------------------------------------------------------------
   0.590E-11 0.248E-10 -.187E-02   0.501E-13 -.164E-13 -.270E-12   0.292E-18 -.139E-17 0.204E-02
 
 
 POSITION                                       TOTAL-FORCE (eV/Angst)
 -----------------------------------------------------------------------------------
      0.00000      1.80412      1.81750         0.000000      0.000000      0.002755
      0.00000      1.80412      5.44930         0.000000      0.000000     -0.005545
      0.00000      1.80412      9.09338        -0.000000     -0.000000      0.002232
      1.80412      1.80412      0.02536         0.000000     -0.000000     -0.000355
      1.80412      1.80412      3.60947         0.000000     -0.000000      0.005723
      1.80412      1.80412      7.27191        -0.000000      0.000000     -0.005311
      1.80412      0.00000      1.81750        -0.000000      0.000000      0.002755
      1.80412      0.00000      5.44930         0.000000      0.000000     -0.005545
      1.80412      0.00000      9.09338         0.000000      0.000000      0.002232
      0.00000      0.00000     10.88439         0.000000      0.000000     -0.005544
      0.00000      0.00000      3.65778         0.000000      0.000000      0.007622
      0.00000      0.00000      7.27133         0.000000      0.000000     -0.001020
 -----------------------------------------------------------------------------------
    total drift:                                0.000000      0.000000      0.000171


--------------------------------------------------------------------------------------------------------



  FREE ENERGIE OF THE ION-ELECTRON SYSTEM (eV)
  ---------------------------------------------------
  free  energy   TOTEN  =       -92.89149290 eV

  energy  without entropy=      -92.90055234  energy(sigma->0) =      -92.89451272
 


--------------------------------------------------------------------------------------------------------


    POTLOK:  cpu time      0.0355: real time      0.0358


--------------------------------------------------------------------------------------------------------




--------------------------------------------------------------------------------------------------------


  
 reached required accuracy - stopping structural energy minimisation
     LOOP+:  cpu time    152.7042: real time    154.7725
    4ORBIT:  cpu time      0.0000: real time      0.0000



 total charge

# of ion       s       p       d       tot
------------------------------------------
    1        0.374   6.377   6.110  12.861
    2        0.376   6.384   6.093  12.853
    3        0.376   6.384   6.093  12.853
    4        0.379   6.388   6.077  12.844
    5        0.379   6.388   6.076  12.844
    6        0.375   6.382   6.100  12.856
    7        0.374   6.377   6.110  12.861
    8        0.376   6.384   6.093  12.853
    9        0.376   6.384   6.093  12.853
   10        0.821   0.809   8.067   9.697
   11        0.821   0.809   8.067   9.696
   12        0.809   0.822   8.065   9.696
--------------------------------------------------
tot          5.834  59.889  79.044 144.766



 magnetization (x)

# of ion       s       p       d       tot
------------------------------------------
    1       -0.004   0.009  -2.336  -2.331
    2        0.008   0.004   2.204   2.216
    3        0.008   0.004   2.202   2.214
    4       -0.014  -0.024  -2.287  -2.326
    5       -0.014  -0.024  -2.288  -2.327
    6        0.002  -0.016   2.375   2.361
    7       -0.004   0.009  -2.336  -2.331
    8        0.008   0.004   2.204   2.216
    9        0.008   0.004   2.202   2.214
   10        0.009   0.021  -0.118  -0.087
   11        0.009   0.021  -0.117  -0.087
   12       -0.033  -0.084   0.301   0.184
--------------------------------------------------
tot         -0.018  -0.071   2.005   1.915
 

 total amount of memory used by VASP MPI-rank0   231578. kBytes
=======================================================================

   base      :      30000. kBytes
   nonl-proj :      94414. kBytes
   fftplans  :        888. kBytes
   grid      :       6813. kBytes
   one-center:        373. kBytes
   wavefun   :      99090. kBytes
 
  
  
 General timing and accounting informations for this job:
 ========================================================
  
                  Total CPU time used (sec):      169.351
                            User time (sec):      161.927
                          System time (sec):        7.424
                         Elapsed time (sec):      176.907
  
                   Maximum memory used (kb):      956984.
                   Average memory used (kb):          N/A
  
                          Minor page faults:       151430
                          Major page faults:          377
                 Voluntary context switches:        11323
