       N       E                     dE             d eps       ncg     rms          ort
DAV:   1     0.176163082863E+04    0.17616E+04   -0.91031E+04 10752   0.205E+03
DAV:   2     0.734498176328E+01   -0.17543E+04   -0.16615E+04 10752   0.486E+02
DAV:   3    -0.101877297904E+03   -0.10922E+03   -0.10774E+03 10752   0.129E+02
DAV:   4    -0.103359563448E+03   -0.14823E+01   -0.14819E+01 10752   0.152E+01
DAV:   5    -0.103385083494E+03   -0.25520E-01   -0.25519E-01 10752   0.194E+00
SDA:   6    -0.610039863512E+02    0.42381E+02   -0.25519E-01 10752   0.190E+03 0.000E+00
CGA:   7    -0.863476678871E+02   -0.25344E+02   -0.24902E+02 10752   0.152E+02-0.546E+00
CGA:   8    -0.903684042517E+02   -0.40207E+01   -0.40304E+01 10752   0.148E+02-0.107E+00
CGA:   9    -0.906646751081E+02   -0.29627E+00   -0.31511E+00 10752   0.395E+01-0.833E+00
CGA:  10    -0.916792372001E+02   -0.10146E+01   -0.10123E+01 10752   0.807E+01 0.232E-01
CGA:  11    -0.919047398990E+02   -0.22550E+00   -0.19052E+00 10752   0.187E+01 0.150E+01
CGA:  12    -0.920217795259E+02   -0.11704E+00   -0.11839E+00 10752   0.739E+00-0.200E-01
CGA:  13    -0.920880358787E+02   -0.66256E-01   -0.67018E-01 10752   0.203E+01-0.411E-02
CGA:  14    -0.921555146658E+02   -0.67479E-01   -0.71754E-01 10752   0.156E+00-0.106E+00
CGA:  15    -0.921786027985E+02   -0.23088E-01   -0.23091E-01 10752   0.277E+00 0.634E-04
CGA:  16    -0.921862476638E+02   -0.76449E-02   -0.78149E-02 10752   0.111E+00-0.559E-02
CGA:  17    -0.921948176405E+02   -0.85700E-02   -0.86118E-02 10752   0.655E-01-0.204E-03
CGA:  18    -0.922080489912E+02   -0.13231E-01   -0.13209E-01 10752   0.315E-01 0.439E-03
CGA:  19    -0.922121555099E+02   -0.41065E-02   -0.41221E-02 10752   0.760E-01 0.220E-03
CGA:  20    -0.922165375961E+02   -0.43821E-02   -0.45266E-02 10752   0.119E+00-0.153E-02
CGA:  21    -0.922272802441E+02   -0.10743E-01   -0.10851E-01 10752   0.201E-01-0.700E-04
CGA:  22    -0.922362390239E+02   -0.89588E-02   -0.91400E-02 10752   0.248E-01-0.620E-03
CGA:  23    -0.922377175464E+02   -0.14785E-02   -0.15018E-02 10752   0.309E-01-0.348E-03
CGA:  24    -0.922393703059E+02   -0.16528E-02   -0.16788E-02 10752   0.237E-01-0.452E-03
CGA:  25    -0.922425537312E+02   -0.31834E-02   -0.31896E-02 10752   0.125E-01 0.103E-03
CGA:  26    -0.922459494910E+02   -0.33958E-02   -0.33900E-02 10752   0.272E-01 0.459E-04
CGA:  27    -0.922468556180E+02   -0.90613E-03   -0.92516E-03 10752   0.114E-01-0.429E-03
CGA:  28    -0.922481107806E+02   -0.12552E-02   -0.12586E-02 10752   0.101E-01 0.164E-04
CGA:  29    -0.922498539651E+02   -0.17432E-02   -0.17408E-02 10752   0.574E-02 0.806E-04
CGA:  30    -0.922500156396E+02   -0.16167E-03   -0.16374E-03 10752   0.162E-02-0.536E-04
CGA:  31    -0.922504381636E+02   -0.42252E-03   -0.41705E-03 10752   0.132E-02 0.451E-04
CGA:  32    -0.922504925630E+02   -0.54399E-04   -0.54616E-04 10752   0.605E-03-0.343E-05
CGA:  33    -0.922505254637E+02   -0.32901E-04   -0.32827E-04 10752   0.265E-03-0.321E-05
CGA:  34    -0.922505672167E+02   -0.41753E-04   -0.41813E-04 10752   0.226E-03-0.471E-05
CGA:  35    -0.922505755399E+02   -0.83231E-05   -0.82641E-05 10752   0.122E-03-0.449E-06
CGA:  36    -0.922505931250E+02   -0.17585E-04   -0.17568E-04 10752   0.654E-04 0.261E-05
SDA:  37    -0.922505983227E+02   -0.51977E-05   -0.53130E-05 10752   0.793E-04 0.246E-05
CGA:  38    -0.922506006240E+02   -0.23013E-05   -0.23385E-05 10752   0.353E-04 0.486E-06
CGA:  39    -0.922506104688E+02   -0.98448E-05   -0.92719E-05 10752   0.392E-04 0.446E-05
CGA:  40    -0.922506169809E+02   -0.65120E-05   -0.64699E-05 10752   0.502E-04 0.422E-05
CGA:  41    -0.922506268856E+02   -0.99048E-05   -0.96883E-05 10752   0.507E-04 0.591E-05
CGA:  42    -0.922506295051E+02   -0.26195E-05   -0.26933E-05 10752   0.577E-04 0.110E-05
CGA:  43    -0.922506432473E+02   -0.13742E-04   -0.13761E-04 10752   0.398E-04 0.439E-07
CGA:  44    -0.922506464162E+02   -0.31689E-05   -0.32086E-05 10752   0.912E-05 0.741E-06
CGA:  45    -0.922506477716E+02   -0.13553E-05   -0.13432E-05 10752   0.230E-04 0.157E-05
CGA:  46    -0.922506488353E+02   -0.10637E-05   -0.11786E-05 10752   0.431E-05 0.125E-05
CGA:  47    -0.922506491878E+02   -0.35256E-06   -0.35381E-06 10752   0.657E-05 0.242E-07
   1 F= -.92250649E+02 E0= -.92251608E+02  d E =-.922506E+02  mag=    22.0008
       N       E                     dE             d eps       ncg     rms          ort
SDA:   1    -0.922496005440E+02    0.10483E-02    0.00000E+00 10752   0.414E-02 0.000E+00
CGA:   2    -0.922498497269E+02   -0.24918E-03   -0.24913E-03 10752   0.558E-02 0.457E-06
CGA:   3    -0.922502434415E+02   -0.39371E-03   -0.39383E-03 10752   0.269E-02 0.148E-05
CGA:   4    -0.922505129085E+02   -0.26947E-03   -0.26953E-03 10752   0.552E-03 0.225E-05
CGA:   5    -0.922506230693E+02   -0.11016E-03   -0.11021E-03 10752   0.187E-03-0.709E-06
CGA:   6    -0.922506373076E+02   -0.14238E-04   -0.14206E-04 10752   0.757E-04-0.702E-06
CGA:   7    -0.922506450952E+02   -0.77876E-05   -0.77728E-05 10752   0.143E-03-0.756E-06
CGA:   8    -0.922506505558E+02   -0.54605E-05   -0.54193E-05 10752   0.117E-04-0.496E-06
CGA:   9    -0.922506531022E+02   -0.25464E-05   -0.24997E-05 10752   0.477E-05 0.460E-06
CGA:  10    -0.922506534024E+02   -0.30022E-06   -0.30414E-06 10752   0.606E-05 0.499E-07
   2 F= -.92250653E+02 E0= -.92251652E+02  d E =-.421455E-05  mag=    22.0002
