       N       E                     dE             d eps       ncg     rms          rms(c)
DAV:   1     0.175976220560E+04    0.17598E+04   -0.83428E+04 43264   0.186E+03
DAV:   2     0.671336803726E+01   -0.17530E+04   -0.16608E+04 43040   0.485E+02
DAV:   3    -0.102112391798E+03   -0.10883E+03   -0.10737E+03 50720   0.129E+02
DAV:   4    -0.103583519271E+03   -0.14711E+01   -0.14707E+01 45600   0.151E+01
DAV:   5    -0.103608848079E+03   -0.25329E-01   -0.25328E-01 53184   0.194E+00    0.447E+01
DAV:   6    -0.978579834669E+02    0.57509E+01   -0.58380E+01 48800   0.485E+01    0.296E+01
DAV:   7    -0.968076662110E+02    0.10503E+01   -0.96115E+01 49728   0.421E+01    0.256E+01
DAV:   8    -0.930946905148E+02    0.37130E+01   -0.80779E+00 49344   0.164E+01    0.136E+01
DAV:   9    -0.954878326503E+02   -0.23931E+01   -0.29421E+01 52672   0.190E+01    0.303E+01
DAV:  10    -0.931183426091E+02    0.23695E+01   -0.33741E+01 52256   0.137E+01    0.172E+01
DAV:  11    -0.921838628330E+02    0.93448E+00   -0.89017E+00 51936   0.109E+01    0.654E+00
DAV:  12    -0.921786263602E+02    0.52365E-02   -0.99263E-01 49824   0.511E+00    0.530E+00
DAV:  13    -0.921302398981E+02    0.48386E-01   -0.57256E-01 50304   0.347E+00    0.367E+00
DAV:  14    -0.921402804226E+02   -0.10041E-01   -0.52476E-02 50592   0.138E+00    0.319E+00
DAV:  15    -0.921623647487E+02   -0.22084E-01   -0.51458E-02 49952   0.116E+00    0.250E+00
DAV:  16    -0.922043313031E+02   -0.41967E-01   -0.49172E-02 50912   0.129E+00    0.175E+00
DAV:  17    -0.922388624184E+02   -0.34531E-01   -0.20008E-02 51040   0.880E-01    0.105E+00
DAV:  18    -0.922493016975E+02   -0.10439E-01   -0.94391E-03 51040   0.635E-01    0.547E-01
DAV:  19    -0.922525284988E+02   -0.32268E-02   -0.27703E-03 49792   0.327E-01    0.213E-01
DAV:  20    -0.922529144865E+02   -0.38599E-03   -0.94591E-04 49408   0.211E-01    0.151E-01
DAV:  21    -0.922531200071E+02   -0.20552E-03   -0.22693E-04 52256   0.868E-02    0.826E-02
DAV:  22    -0.922531685019E+02   -0.48495E-04   -0.91334E-05 50976   0.632E-02    0.504E-02
DAV:  23    -0.922531725150E+02   -0.40130E-05   -0.19180E-05 53792   0.345E-02    0.249E-02
DAV:  24    -0.922531847640E+02   -0.12249E-04   -0.17009E-05 45152   0.225E-02    0.338E-02
DAV:  25    -0.922531805212E+02    0.42428E-05   -0.16934E-06 30816   0.605E-03    0.302E-02
DAV:  26    -0.922531908285E+02   -0.10307E-04   -0.27277E-06 35136   0.103E-02    0.225E-02
DAV:  27    -0.922531848871E+02    0.59414E-05   -0.18552E-06 34208   0.991E-03    0.155E-02
DAV:  28    -0.922531957566E+02   -0.10870E-04   -0.50393E-06 35712   0.113E-02    0.867E-03
DAV:  29    -0.922531940802E+02    0.16764E-05   -0.21887E-06 27264   0.687E-03    0.878E-03
DAV:  30    -0.922531958662E+02   -0.17860E-05    0.48532E-07 26912   0.394E-03    0.379E-03
DAV:  31    -0.922531966547E+02   -0.78856E-06   -0.24123E-07 26080   0.274E-03
   1 F= -.92253197E+02 E0= -.92253197E+02  d E =0.000000E+00  mag=    22.0354
