 vasp.6.4.3 19Mar24 (build Mar 26 2024 14:05:37) complex                        
  
 executed on             LinuxIFC date 2024.12.16  09:15:21
 running  128 mpi-ranks, on    1 nodes
 distrk:  each k-point on   32 cores,    4 groups
 distr:  one band on NCORE=   1 cores,   32 groups


--------------------------------------------------------------------------------------------------------


 INCAR:
   ALGO = All
   EDIFF = 1e-06
   EDIFFG = -0.01
   ENCUT = 520
   GGA = Pe
   IBRION = 2
   ISIF = 4
   ISMEAR = 1
   ISPIN = 2
   KPAR = 4
   LCHARG = True
   LORBIT = 11
   LREAL = False
   LWAVE = False
   MAGMOM = 1*2.372 1*2.374 2*2.372 2*2.374 1*2.372 1*2.374 1*2.372 3*0.208
   NELM = 200
   NSW = 100
   PREC = Accurate
   SIGMA = 0.2

 POTCAR:    PAW_PBE Fe_pv 02Aug2007               
 POTCAR:    PAW_PBE Pt 04Feb2005                  
 -----------------------------------------------------------------------------
|                                                                             |
|           W    W    AA    RRRRR   N    N  II  N    N   GGGG   !!!           |
|           W    W   A  A   R    R  NN   N  II  NN   N  G    G  !!!           |
|           W    W  A    A  R    R  N N  N  II  N N  N  G       !!!           |
|           W WW W  AAAAAA  RRRRR   N  N N  II  N  N N  G  GGG   !            |
|           WW  WW  A    A  R   R   N   NN  II  N   NN  G    G                |
|           W    W  A    A  R    R  N    N  II  N    N   GGGG   !!!           |
|                                                                             |
|     For optimal performance we recommend to set                             |
|       NCORE = 2 up to number-of-cores-per-socket                            |
|     NCORE specifies how many cores store one orbital (NPAR=cpu/NCORE).      |
|     This setting can greatly improve the performance of VASP for DFT.       |
|     The default, NCORE=1 might be grossly inefficient on modern             |
|     multi-core architectures or massively parallel machines. Do your        |
|     own testing! More info at https://www.vasp.at/wiki/index.php/NCORE      |
|     Unfortunately you need to use the default for GW and RPA                |
|     calculations (for HF NCORE is supported but not extensively tested      |
|     yet).                                                                   |
|                                                                             |
 -----------------------------------------------------------------------------

 POTCAR:    PAW_PBE Fe_pv 02Aug2007               
   SHA256 =  5d22e414b1f82158bf2c7ecb8b97b28fd0923e48cadc1c3bf74d524558f5dd32 Fe_pv/POTCAR          
   COPYR  = (c) Copyright 02Aug2007 Georg Kresse                                                    
   COPYR  = This file is part of the software VASP. Any use, copying, and all other rights are regul
   COPYR  = If you do not have a valid VASP license, you may not use, copy or distribute this file. 
   VRHFIN =Fe:  3pd7s1                                                                              
   LEXCH  = PE                                                                                      
   EATOM  =  2457.4239 eV,  180.6156 Ry                                                             
                                                                                                    
   TITEL  = PAW_PBE Fe_pv 02Aug2007                                                                 
   LULTRA =        F    use ultrasoft PP ?                                                          
   IUNSCR =        1    unscreen: 0-lin 1-nonlin 2-no                                               
   RPACOR =    1.750    partial core radius                                                         
   POMASS =   55.847; ZVAL   =   14.000    mass and valenz                                          
   RCORE  =    2.200    outmost cutoff radius                                                       
   RWIGS  =    2.200; RWIGS  =    1.164    wigner-seitz radius (au A)                               
   ENMAX  =  293.238; ENMIN  =  219.928 eV                                                          
   ICORE  =        3    local potential                                                             
   LCOR   =        T    correct aug charges                                                         
   LPAW   =        T    paw PP                                                                      
   EAUG   =  578.342                                                                                
   DEXC   =    0.000                                                                                
   RMAX   =    2.249    core radius for proj-oper                                                   
   RAUG   =    1.300    factor for augmentation sphere                                              
   RDEP   =    2.296    radius for radial grids                                                     
   RDEPT  =    1.766    core radius for aug-charge                                                  
                                                                                                    
   Atomic configuration                                                                             
    8 entries                                                                                       
     n  l   j            E        occ.                                                              
     1  0  0.50     -6993.8440   2.0000                                                             
     2  0  0.50      -814.6047   2.0000                                                             
     2  1  1.50      -693.3689   6.0000                                                             
     3  0  0.50       -89.4732   2.0000                                                             
     3  1  1.50       -55.6373   6.0000                                                             
     3  2  2.50        -3.8151   7.0000                                                             
     4  0  0.50        -4.2551   1.0000                                                             
     4  3  2.50        -1.3606   0.0000                                                             
   Description                                                                                      
     l       E           TYP  RCUT    TYP  RCUT                                                     
     1    -55.6372668     23  2.000                                                                 
     1     -5.4423304     23  2.000                                                                 
     2     -3.8151096     23  2.200                                                                 
     2     -5.1756922     23  2.200                                                                 
     0     -4.2550951     23  2.200                                                                 
     0     27.2116520     23  2.200                                                                 
     3     -1.3605826     23  2.200                                                                 
  local pseudopotential read in
  partial core-charges read in
  partial kinetic energy density read in
  atomic valenz-charges read in
  non local Contribution for L=           1  read in
    real space projection operators read in
  non local Contribution for L=           1  read in
    real space projection operators read in
  non local Contribution for L=           2  read in
    real space projection operators read in
  non local Contribution for L=           2  read in
    real space projection operators read in
  non local Contribution for L=           0  read in
    real space projection operators read in
  non local Contribution for L=           0  read in
    real space projection operators read in
    PAW grid and wavefunctions read in
 
   number of l-projection  operators is LMAX  =           6
   number of lm-projection operators is LMMAX =          18
 
 POTCAR:    PAW_PBE Pt 04Feb2005                  
   SHA256 =  3ed90460adef76debcff1cfb73ee1349b515b1a3db03439735b44de3a8db7dc8 Pt/POTCAR             
   COPYR  = (c) Copyright 04Feb2005 Georg Kresse                                                    
   COPYR  = This file is part of the software VASP. Any use, copying, and all other rights are regul
   COPYR  = If you do not have a valid VASP license, you may not use, copy or distribute this file. 
   VRHFIN =Pt: s1d9                                                                                 
   LEXCH  = PE                                                                                      
   EATOM  =   729.1176 eV,   53.5886 Ry                                                             
                                                                                                    
   TITEL  = PAW_PBE Pt 04Feb2005                                                                    
   LULTRA =        F    use ultrasoft PP ?                                                          
   IUNSCR =        1    unscreen: 0-lin 1-nonlin 2-no                                               
   RPACOR =    2.330    partial core radius                                                         
   POMASS =  195.080; ZVAL   =   10.000    mass and valenz                                          
   RCORE  =    2.600    outmost cutoff radius                                                       
   RWIGS  =    2.750; RWIGS  =    1.455    wigner-seitz radius (au A)                               
   ENMAX  =  230.283; ENMIN  =  172.712 eV                                                          
   ICORE  =        3    local potential                                                             
   LCOR   =        T    correct aug charges                                                         
   LPAW   =        T    paw PP                                                                      
   EAUG   =  358.966                                                                                
   DEXC   =    0.000                                                                                
   RMAX   =    2.658    core radius for proj-oper                                                   
   RAUG   =    1.300    factor for augmentation sphere                                              
   RDEP   =    2.761    radius for radial grids                                                     
   RDEPT  =    2.203    core radius for aug-charge                                                  
                                                                                                    
   Atomic configuration                                                                             
   16 entries                                                                                       
     n  l   j            E        occ.                                                              
     1  0  0.50    -78401.1885   2.0000                                                             
     2  0  0.50    -13770.7750   2.0000                                                             
     2  1  1.50    -11931.0468   6.0000                                                             
     3  0  0.50     -3234.7234   2.0000                                                             
     3  1  1.50     -2699.2216   6.0000                                                             
     3  2  2.50     -2119.5714  10.0000                                                             
     4  0  0.50      -695.1528   2.0000                                                             
     4  1  1.50      -519.6034   6.0000                                                             
     4  2  2.50      -306.6786  10.0000                                                             
     4  3  3.50       -70.1041  14.0000                                                             
     5  0  0.50      -101.7747   2.0000                                                             
     5  1  1.50       -55.9873   6.0000                                                             
     5  2  2.50        -6.1423   9.0000                                                             
     6  0  0.50        -5.6573   1.0000                                                             
     6  1  1.50        -6.8029   0.0000                                                             
     5  3  2.50        -1.3606   0.0000                                                             
   Description                                                                                      
     l       E           TYP  RCUT    TYP  RCUT                                                     
     2     -6.1423404     23  2.500                                                                 
     2     -7.5029230     23  2.500                                                                 
     0     -5.6573207     23  2.500                                                                 
     0      0.7416693     23  2.500                                                                 
     1     -2.7211652     23  2.600                                                                 
     1     20.4087390     23  2.600                                                                 
     3     -1.3605826     23  2.500                                                                 
  local pseudopotential read in
  partial core-charges read in
  partial kinetic energy density read in
  atomic valenz-charges read in
  non local Contribution for L=           2  read in
    real space projection operators read in
  non local Contribution for L=           2  read in
    real space projection operators read in
  non local Contribution for L=           0  read in
    real space projection operators read in
  non local Contribution for L=           0  read in
    real space projection operators read in
  non local Contribution for L=           1  read in
    real space projection operators read in
  non local Contribution for L=           1  read in
    real space projection operators read in
    PAW grid and wavefunctions read in
 
   number of l-projection  operators is LMAX  =           6
   number of lm-projection operators is LMMAX =          18
 
  PAW_PBE Fe_pv 02Aug2007               :
 energy of atom  1       EATOM=-2457.4239
 kinetic energy error for atom=    0.0062 (will be added to EATOM!!)
  PAW_PBE Pt 04Feb2005                  :
 energy of atom  2       EATOM= -729.1176
 kinetic energy error for atom=    0.0032 (will be added to EATOM!!)
 
 
 POSCAR: Fe9 Pt3
  positions in direct lattice
  velocities in cartesian coordinates


 exchange-correlation table for PE
   RHO(1)=    0.500       N(1)  =     2000
   RHO(2)=  100.500       N(2)  =     4000
 


--------------------------------------------------------------------------------------------------------


 ion  position               nearest neighbor table
   1  0.000  0.500  0.167-   4 2.54  10 2.54  10 2.54   4 2.54   5 2.54   5 2.54   7 2.54   7 2.54
                             7 2.54   7 2.54  11 2.54  11 2.54
   2  0.000  0.500  0.500-   8 2.54   8 2.54   8 2.54   8 2.54  11 2.54  12 2.54  12 2.54  11 2.54
                             5 2.54   6 2.54   5 2.54   6 2.54
   3  0.000  0.500  0.833-   4 2.54  10 2.54  10 2.54   4 2.54   6 2.54   6 2.54   9 2.54   9 2.54
                             9 2.54   9 2.54  12 2.54  12 2.54
   4  0.500  0.500  0.000-   1 2.54   3 2.54   7 2.54   9 2.54   7 2.54   9 2.54   1 2.54   3 2.54
                            10 2.54  10 2.54  10 2.54  10 2.54
   5  0.500  0.500  0.333-   1 2.54   7 2.54   7 2.54   1 2.54  11 2.54  11 2.54  11 2.54  11 2.54
                             8 2.54   2 2.54   8 2.54   2 2.54
   6  0.500  0.500  0.667-   3 2.54   9 2.54   9 2.54   3 2.54  12 2.54  12 2.54  12 2.54  12 2.54
                             2 2.54   8 2.54   2 2.54   8 2.54
   7  0.500  0.000  0.167-   4 2.54  10 2.54   4 2.54  10 2.54   5 2.54   5 2.54   1 2.54   1 2.54
                             1 2.54   1 2.54  11 2.54  11 2.54
   8  0.500  0.000  0.500-   2 2.54   2 2.54   2 2.54   2 2.54  12 2.54  11 2.54  12 2.54  11 2.54
                             6 2.54   5 2.54   5 2.54   6 2.54
   9  0.500  0.000  0.833-   4 2.54  10 2.54   4 2.54  10 2.54   6 2.54   6 2.54   3 2.54   3 2.54
                             3 2.54   3 2.54  12 2.54  12 2.54
  10  0.000  0.000  0.000-   1 2.54   3 2.54   7 2.54   9 2.54   1 2.54   3 2.54   7 2.54   9 2.54
                             4 2.54   4 2.54   4 2.54   4 2.54
  11  0.000  0.000  0.333-   5 2.54   5 2.54   5 2.54   5 2.54   1 2.54   7 2.54   7 2.54   1 2.54
                             2 2.54   2 2.54   8 2.54   8 2.54
  12  0.000  0.000  0.667-   6 2.54   6 2.54   6 2.54   6 2.54   3 2.54   9 2.54   9 2.54   3 2.54
                             2 2.54   8 2.54   8 2.54   2 2.54
 
  LATTYP: Found a simple tetragonal cell.
 ALAT       =     3.5915691903
 C/A-ratio  =     3.0002820804
  
  Lattice vectors:
  
 A1 = (   3.5915691903,   0.0000000000,   0.0000000000)
 A2 = (   0.0000000000,   3.5915691903,   0.0000000000)
 A3 = (   0.0000000000,   0.0000000000,  10.7757206822)


Analysis of symmetry for initial positions (statically):
=====================================================================
 Subroutine PRICEL returns:
 Original cell was already a primitive cell.
 

 Routine SETGRP: Setting up the symmetry group for a 
 simple tetragonal supercell.


 Subroutine GETGRP returns: Found 16 space group operations
 (whereof 16 operations were pure point group operations)
 out of a pool of 16 trial point group operations.


The static configuration has the point symmetry D_4h.


Analysis of symmetry for dynamics (positions and initial velocities):
=====================================================================
 Subroutine PRICEL returns:
 Original cell was already a primitive cell.
 

 Routine SETGRP: Setting up the symmetry group for a 
 simple tetragonal supercell.


 Subroutine GETGRP returns: Found 16 space group operations
 (whereof 16 operations were pure point group operations)
 out of a pool of 16 trial point group operations.


The dynamic configuration has the point symmetry D_4h.


Analysis of structural, dynamic, and magnetic symmetry:
=====================================================================
 Subroutine PRICEL returns:
 Original cell was already a primitive cell.
 

 Routine SETGRP: Setting up the symmetry group for a 
 simple tetragonal supercell.


 Subroutine GETGRP returns: Found 16 space group operations
 (whereof 16 operations were pure point group operations)
 out of a pool of 16 trial point group operations.


The overall configuration has the point symmetry D_4h.


 Subroutine INISYM returns: Found 16 space group operations
 (whereof 16 operations are pure point group operations),
 and found     1 'primitive' translations


----------------------------------------------------------------------------------------

                                     Primitive cell                                     

  volume of cell :     139.0000

  direct lattice vectors                    reciprocal lattice vectors
     3.591569190  0.000000000  0.000000000     0.278429830  0.000000000  0.000000000
     0.000000000  3.591569190  0.000000000     0.000000000  0.278429830  0.000000000
     0.000000000  0.000000000 10.775720682     0.000000000  0.000000000  0.092801218

  length of vectors
     3.591569190  3.591569190 10.775720682     0.278429830  0.278429830  0.092801218

  position of ions in fractional coordinates (direct lattice)
     0.000000000  0.500000000  0.166624286
     0.000000000  0.500000000  0.500000000
     0.000000000  0.500000000  0.833375714
     0.500000000  0.500000000  0.000000000
     0.500000000  0.500000000  0.333263079
     0.500000000  0.500000000  0.666736921
     0.500000000  0.000000000  0.166624286
     0.500000000  0.000000000  0.500000000
     0.500000000  0.000000000  0.833375714
     0.000000000  0.000000000  0.000000000
     0.000000000  0.000000000  0.333311845
     0.000000000  0.000000000  0.666688155

  ion indices of the primitive-cell ions
   primitive index   ion index
                 1           1
                 2           2
                 3           3
                 4           4
                 5           5
                 6           6
                 7           7
                 8           8
                 9           9
                10          10
                11          11
                12          12

----------------------------------------------------------------------------------------

 
 
 KPOINTS: pymatgen with grid density = 8800 / numb

Automatic generation of k-mesh.
 Grid dimensions read from file:
 generate k-points for:   13   13    4

 Generating k-lattice:

  Cartesian coordinates                     Fractional coordinates (reciprocal lattice)
     0.021417679  0.000000000  0.000000000     0.076923077  0.000000000  0.000000000
     0.000000000  0.021417679  0.000000000     0.000000000  0.076923077  0.000000000
     0.000000000  0.000000000  0.023200304     0.000000000  0.000000000  0.250000000

  Length of vectors
     0.021417679  0.021417679  0.023200304

  Shift w.r.t. Gamma in fractional coordinates (k-lattice)
     0.000000000  0.000000000  0.000000000

 
 Subroutine IBZKPT returns following result:
 ===========================================
 
 Found     84 irreducible k-points:
 
 Following reciprocal coordinates:
            Coordinates               Weight
  0.000000  0.000000  0.000000      1.000000
  0.076923  0.000000  0.000000      4.000000
  0.153846  0.000000  0.000000      4.000000
  0.230769  0.000000  0.000000      4.000000
  0.307692  0.000000  0.000000      4.000000
  0.384615  0.000000  0.000000      4.000000
  0.461538  0.000000  0.000000      4.000000
  0.076923  0.076923  0.000000      4.000000
  0.153846  0.076923  0.000000      8.000000
  0.230769  0.076923  0.000000      8.000000
  0.307692  0.076923  0.000000      8.000000
  0.384615  0.076923  0.000000      8.000000
  0.461538  0.076923  0.000000      8.000000
  0.153846  0.153846  0.000000      4.000000
  0.230769  0.153846  0.000000      8.000000
  0.307692  0.153846  0.000000      8.000000
  0.384615  0.153846  0.000000      8.000000
  0.461538  0.153846  0.000000      8.000000
  0.230769  0.230769  0.000000      4.000000
  0.307692  0.230769  0.000000      8.000000
  0.384615  0.230769  0.000000      8.000000
  0.461538  0.230769  0.000000      8.000000
  0.307692  0.307692  0.000000      4.000000
  0.384615  0.307692  0.000000      8.000000
  0.461538  0.307692  0.000000      8.000000
  0.384615  0.384615  0.000000      4.000000
  0.461538  0.384615  0.000000      8.000000
  0.461538  0.461538  0.000000      4.000000
  0.000000  0.000000  0.250000      2.000000
  0.076923  0.000000  0.250000      8.000000
  0.153846  0.000000  0.250000      8.000000
  0.230769  0.000000  0.250000      8.000000
  0.307692  0.000000  0.250000      8.000000
  0.384615  0.000000  0.250000      8.000000
  0.461538  0.000000  0.250000      8.000000
  0.076923  0.076923  0.250000      8.000000
  0.153846  0.076923  0.250000     16.000000
  0.230769  0.076923  0.250000     16.000000
  0.307692  0.076923  0.250000     16.000000
  0.384615  0.076923  0.250000     16.000000
  0.461538  0.076923  0.250000     16.000000
  0.153846  0.153846  0.250000      8.000000
  0.230769  0.153846  0.250000     16.000000
  0.307692  0.153846  0.250000     16.000000
  0.384615  0.153846  0.250000     16.000000
  0.461538  0.153846  0.250000     16.000000
  0.230769  0.230769  0.250000      8.000000
  0.307692  0.230769  0.250000     16.000000
  0.384615  0.230769  0.250000     16.000000
  0.461538  0.230769  0.250000     16.000000
  0.307692  0.307692  0.250000      8.000000
  0.384615  0.307692  0.250000     16.000000
  0.461538  0.307692  0.250000     16.000000
  0.384615  0.384615  0.250000      8.000000
  0.461538  0.384615  0.250000     16.000000
  0.461538  0.461538  0.250000      8.000000
  0.000000  0.000000  0.500000      1.000000
  0.076923  0.000000  0.500000      4.000000
  0.153846  0.000000  0.500000      4.000000
  0.230769  0.000000  0.500000      4.000000
  0.307692  0.000000  0.500000      4.000000
  0.384615  0.000000  0.500000      4.000000
  0.461538  0.000000  0.500000      4.000000
  0.076923  0.076923  0.500000      4.000000
  0.153846  0.076923  0.500000      8.000000
  0.230769  0.076923  0.500000      8.000000
  0.307692  0.076923  0.500000      8.000000
  0.384615  0.076923  0.500000      8.000000
  0.461538  0.076923  0.500000      8.000000
  0.153846  0.153846  0.500000      4.000000
  0.230769  0.153846  0.500000      8.000000
  0.307692  0.153846  0.500000      8.000000
  0.384615  0.153846  0.500000      8.000000
  0.461538  0.153846  0.500000      8.000000
  0.230769  0.230769  0.500000      4.000000
  0.307692  0.230769  0.500000      8.000000
  0.384615  0.230769  0.500000      8.000000
  0.461538  0.230769  0.500000      8.000000
  0.307692  0.307692  0.500000      4.000000
  0.384615  0.307692  0.500000      8.000000
  0.461538  0.307692  0.500000      8.000000
  0.384615  0.384615  0.500000      4.000000
  0.461538  0.384615  0.500000      8.000000
  0.461538  0.461538  0.500000      4.000000
 
 Following cartesian coordinates:
            Coordinates               Weight
  0.000000  0.000000  0.000000      1.000000
  0.021418  0.000000  0.000000      4.000000
  0.042835  0.000000  0.000000      4.000000
  0.064253  0.000000  0.000000      4.000000
  0.085671  0.000000  0.000000      4.000000
  0.107088  0.000000  0.000000      4.000000
  0.128506  0.000000  0.000000      4.000000
  0.021418  0.021418  0.000000      4.000000
  0.042835  0.021418  0.000000      8.000000
  0.064253  0.021418  0.000000      8.000000
  0.085671  0.021418  0.000000      8.000000
  0.107088  0.021418  0.000000      8.000000
  0.128506  0.021418  0.000000      8.000000
  0.042835  0.042835  0.000000      4.000000
  0.064253  0.042835  0.000000      8.000000
  0.085671  0.042835  0.000000      8.000000
  0.107088  0.042835  0.000000      8.000000
  0.128506  0.042835  0.000000      8.000000
  0.064253  0.064253  0.000000      4.000000
  0.085671  0.064253  0.000000      8.000000
  0.107088  0.064253  0.000000      8.000000
  0.128506  0.064253  0.000000      8.000000
  0.085671  0.085671  0.000000      4.000000
  0.107088  0.085671  0.000000      8.000000
  0.128506  0.085671  0.000000      8.000000
  0.107088  0.107088  0.000000      4.000000
  0.128506  0.107088  0.000000      8.000000
  0.128506  0.128506  0.000000      4.000000
  0.000000  0.000000  0.023200      2.000000
  0.021418  0.000000  0.023200      8.000000
  0.042835  0.000000  0.023200      8.000000
  0.064253  0.000000  0.023200      8.000000
  0.085671  0.000000  0.023200      8.000000
  0.107088  0.000000  0.023200      8.000000
  0.128506  0.000000  0.023200      8.000000
  0.021418  0.021418  0.023200      8.000000
  0.042835  0.021418  0.023200     16.000000
  0.064253  0.021418  0.023200     16.000000
  0.085671  0.021418  0.023200     16.000000
  0.107088  0.021418  0.023200     16.000000
  0.128506  0.021418  0.023200     16.000000
  0.042835  0.042835  0.023200      8.000000
  0.064253  0.042835  0.023200     16.000000
  0.085671  0.042835  0.023200     16.000000
  0.107088  0.042835  0.023200     16.000000
  0.128506  0.042835  0.023200     16.000000
  0.064253  0.064253  0.023200      8.000000
  0.085671  0.064253  0.023200     16.000000
  0.107088  0.064253  0.023200     16.000000
  0.128506  0.064253  0.023200     16.000000
  0.085671  0.085671  0.023200      8.000000
  0.107088  0.085671  0.023200     16.000000
  0.128506  0.085671  0.023200     16.000000
  0.107088  0.107088  0.023200      8.000000
  0.128506  0.107088  0.023200     16.000000
  0.128506  0.128506  0.023200      8.000000
  0.000000  0.000000  0.046401      1.000000
  0.021418  0.000000  0.046401      4.000000
  0.042835  0.000000  0.046401      4.000000
  0.064253  0.000000  0.046401      4.000000
  0.085671  0.000000  0.046401      4.000000
  0.107088  0.000000  0.046401      4.000000
  0.128506  0.000000  0.046401      4.000000
  0.021418  0.021418  0.046401      4.000000
  0.042835  0.021418  0.046401      8.000000
  0.064253  0.021418  0.046401      8.000000
  0.085671  0.021418  0.046401      8.000000
  0.107088  0.021418  0.046401      8.000000
  0.128506  0.021418  0.046401      8.000000
  0.042835  0.042835  0.046401      4.000000
  0.064253  0.042835  0.046401      8.000000
  0.085671  0.042835  0.046401      8.000000
  0.107088  0.042835  0.046401      8.000000
  0.128506  0.042835  0.046401      8.000000
  0.064253  0.064253  0.046401      4.000000
  0.085671  0.064253  0.046401      8.000000
  0.107088  0.064253  0.046401      8.000000
  0.128506  0.064253  0.046401      8.000000
  0.085671  0.085671  0.046401      4.000000
  0.107088  0.085671  0.046401      8.000000
  0.128506  0.085671  0.046401      8.000000
  0.107088  0.107088  0.046401      4.000000
  0.128506  0.107088  0.046401      8.000000
  0.128506  0.128506  0.046401      4.000000
 


--------------------------------------------------------------------------------------------------------




 Dimension of arrays:
   k-points           NKPTS =     84   k-points in BZ     NKDIM =     84   number of bands    NBANDS=    128
   number of dos      NEDOS =    301   number of ions     NIONS =     12
   non local maximal  LDIM  =      6   non local SUM 2l+1 LMDIM =     18
   total plane-waves  NPLWV =  62720
   max r-space proj   IRMAX =      1   max aug-charges    IRDMAX=  27526
   dimension x,y,z NGX =    28 NGY =   28 NGZ =   80
   dimension x,y,z NGXF=    56 NGYF=   56 NGZF=  160
   support grid    NGXF=    56 NGYF=   56 NGZF=  160
   ions per type =               9   3
   NGX,Y,Z   is equivalent  to a cutoff of  12.96, 12.96, 12.34 a.u.
   NGXF,Y,Z  is equivalent  to a cutoff of  25.92, 25.92, 24.68 a.u.

 SYSTEM =  unknown system                          
 POSCAR =  Fe9 Pt3                                 

 Startparameter for this run:
   NWRITE =      2    write-flag & timer
   PREC   = accura    normal or accurate (medium, high low for compatibility)
   ISTART =      0    job   : 0-new  1-cont  2-samecut
   ICHARG =      2    charge: 1-file 2-atom 10-const
   ISPIN  =      2    spin polarized calculation?
   LNONCOLLINEAR =      F non collinear calculations
   LSORBIT =      F    spin-orbit coupling
   INIWAV =      1    electr: 0-lowe 1-rand  2-diag
   LASPH  =      F    aspherical Exc in radial PAW
 Electronic Relaxation 1
   ENCUT  =  520.0 eV  38.22 Ry    6.18 a.u.   6.68  6.68 20.04*2*pi/ulx,y,z
   ENINI  =  520.0     initial cutoff
   ENAUG  =  578.3 eV  augmentation charge cutoff
   NELM   =    200;   NELMIN=  2; NELMDL=  0     # of ELM steps 
   EDIFF  = 0.1E-05   stopping-criterion for ELM
   LREAL  =      F    real-space projection
   NLSPLINE    = F    spline interpolate recip. space projectors
   LCOMPAT=      F    compatible to vasp.4.4
   GGA_COMPAT  = T    GGA compatible to vasp.4.4-vasp.4.6
   LMAXPAW     = -100 max onsite density
   LMAXMIX     =    2 max onsite mixed and CHGCAR
   VOSKOWN=      0    Vosko Wilk Nusair interpolation
   ROPT   =    0.00000   0.00000
 Ionic relaxation
   EDIFFG = -.1E-01   stopping-criterion for IOM
   NSW    =    100    number of steps for IOM
   NBLOCK =      1;   KBLOCK =    100    inner block; outer block 
   IBRION =      2    ionic relax: 0-MD 1-quasi-New 2-CG
   NFREE  =      1    steps in history (QN), initial steepest desc. (CG)
   ISIF   =      4    stress and relaxation
   IWAVPR =     11    prediction:  0-non 1-charg 2-wave 3-comb
   ISYM   =      2    0-nonsym 1-usesym 2-fastsym
   LCORR  =      T    Harris-Foulkes like correction to forces

   POTIM  = 0.5000    time-step for ionic-motion
   TEIN   =    0.0    initial temperature
   TEBEG  =    0.0;   TEEND  =   0.0 temperature during run
   SMASS  =  -3.00    Nose mass-parameter (am)
   estimated Nose-frequenzy (Omega)   =  0.10E-29 period in steps = 0.13E+47 mass=  -0.295E-27a.u.
   SCALEE = 1.0000    scale energy and forces
   NPACO  =    256;   APACO  = 10.0  distance and # of slots for P.C.
   PSTRESS=    0.0 pullay stress

  Mass of Ions in am
   POMASS =  55.85195.08
  Ionic Valenz
   ZVAL   =  14.00 10.00
  Atomic Wigner-Seitz radii
   RWIGS  =  -1.00 -1.00
  virtual crystal weights 
   VCA    =   1.00  1.00
   NELECT =     156.0000    total number of electrons
   NUPDOWN=      -1.0000    fix difference up-down

 DOS related values:
   EMIN   =  10.00;   EMAX   =-10.00  energy-range for DOS
   EFERMI =   0.00;   METHOD = LEGACY      
   ISMEAR =     1;   SIGMA  =   0.20  broadening in eV -4-tet -1-fermi 0-gaus

 Electronic relaxation 2 (details)
   IALGO  =     58    algorithm
   LDIAG  =      T    sub-space diagonalisation (order eigenvalues)
   LSUBROT=      F    optimize rotation matrix (better conditioning)
   TURBO    =      0    0=normal 1=particle mesh
   IRESTART =      0    0=no restart 2=restart with 2 vectors
   NREBOOT  =      0    no. of reboots
   NMIN     =      0    reboot dimension
   EREF     =   0.00    reference energy to select bands
   IMIX   =      4    mixing-type and parameters
     AMIX     =   0.40;   BMIX     =  1.00
     AMIX_MAG =   1.60;   BMIX_MAG =  1.00
     AMIN     =   0.10
     WC   =   100.;   INIMIX=   1;  MIXPRE=   1;  MAXMIX= -45

 Intra band minimization:
   WEIMIN = 0.0010     energy-eigenvalue tresh-hold
   EBREAK =  0.20E-08  absolut break condition
   DEPER  =   0.30     relativ break condition  

   TIME   =   0.40     timestep for ELM

  volume/ion in A,a.u.               =      11.58        78.17
  Fermi-wavevector in a.u.,A,eV,Ry     =   1.701289  3.214970 39.380489  2.894384
  Thomas-Fermi vector in A             =   2.781269
 
 Write flags
   LWAVE        =      F    write WAVECAR
   LDOWNSAMPLE  =      F    k-point downsampling of WAVECAR
   LCHARG       =      T    write CHGCAR
   LVTOT        =      F    write LOCPOT, total local potential
   LVHAR        =      F    write LOCPOT, Hartree potential only
   WRT_POTENTIAL= false  ! write potential to hdf5 file
   LELF         =      F    write electronic localiz. function (ELF)
   LORBIT       =     11    0 simple, 1 ext, 2 COOP (PROOUT), +10 PAW based schemes


 Dipole corrections
   LMONO      =      F    monopole corrections only (constant potential shift)
   LDIPOL     =      F    correct potential (dipole corrections)
   IDIPOL     =      0    1-x, 2-y, 3-z, 4-all directions 
   EPSILON    =  1.0000000 bulk dielectric constant
   LVACPOTAV  =      F  vacuum potentials using an averaging scheme for the charge density
   VACPOTFLAT =  0.1000000 required flatness to determine vacuum potential
 Exchange correlation treatment:
   GGA     = PE    functional components
   XC_C    = 1    coefficients multiplying the functional components
   LIBXC   =     F    Libxc                    
   VOSKOWN =     0    Vosko Wilk Nusair interpolation
   LHFCALC =     F    Hartree Fock is set to
   LHFONE  =     F    Hartree Fock one center treatment
   AEXX    =    0.0000 exact exchange contribution

 Parameters of functionals:
   PE:
     No parameter
 
 Van der Waals corrections
   IVDW    =     0    specifies the selected vdW correction

 Linear response parameters
   LEPSILON=     F    determine dielectric tensor
   LRPA    =     F    only Hartree local field effects (RPA)
   LNABLA  =     F    use nabla operator in PAW spheres
   LVEL    =     F    velocity operator in full k-point grid
   CSHIFT  =0.1000    complex shift for real part using Kramers Kronig
   OMEGAMAX=  -1.0    maximum frequency
   DEG_THRESHOLD= 0.2000000E-02 threshold for treating states as degnerate
   RTIME   =   -0.100 relaxation time in fs
  (WPLASMAI=    0.000 imaginary part of plasma frequency in eV, 0.658/RTIME)
   DFIELD  = 0.0000000 0.0000000 0.0000000 field for delta impulse in time
 
  Optional k-point grid parameters
   LKPOINTS_OPT  =     F    use optional k-point grid
   KPOINTS_OPT_MODE=     1    mode for optional k-point grid
 
 Orbital magnetization related:
   ORBITALMAG=     F  switch on orbital magnetization
   LCHIMAG   =     F  perturbation theory with respect to B field
   DQ        =  0.001000  dq finite difference perturbation B field
   LLRAUG    =     F  two centre corrections for induced B field
   LBONE     =     F  B-component reconstruction in AE one-centre
   LVGVCALC  =     T  calculate vGv susceptibility
   LVGVAPPL  =     F  apply vGv susceptibility instead of pGv for G=0

 Random number generation:
   RANDOM_GENERATOR = DEFAULT
   PCG_SEED         = not used


--------------------------------------------------------------------------------------------------------


 conjugate gradient relaxation of ions
 charge density and potential will be updated during run
 spin polarized calculation
 Conjugate gradient for all bands (Freysoldt, et al. PRB 79, 241103 (2009))
 preconditioned conjugated gradient                                        
 perform sub-space diagonalisation
    before iterative eigenvector-optimisation
 modified Broyden-mixing scheme, WC =      100.0
 initial mixing is a Kerker type mixing with AMIX =  0.4000 and BMIX =      1.0000
 Hartree-type preconditioning will be used
 using additional bands           50
 reciprocal scheme for non local part
 use partial core corrections
 no Harris-corrections to forces 
 use gradient corrections 
 use of overlap-Matrix (Vanderbilt PP)
 Methfessel and Paxton  Order N= 1 SIGMA  =   0.20


--------------------------------------------------------------------------------------------------------


  energy-cutoff  :      520.00
  volume of cell :      139.00
      direct lattice vectors                 reciprocal lattice vectors
     3.591569190  0.000000000  0.000000000     0.278429830  0.000000000  0.000000000
     0.000000000  3.591569190  0.000000000     0.000000000  0.278429830  0.000000000
     0.000000000  0.000000000 10.775720682     0.000000000  0.000000000  0.092801218

  length of vectors
     3.591569190  3.591569190 10.775720682     0.278429830  0.278429830  0.092801218


 
 k-points in units of 2pi/SCALE and weight: pymatgen with grid density = 8800 / numb
   0.00000000  0.00000000  0.00000000       0.001
   0.02141768  0.00000000  0.00000000       0.006
   0.04283536  0.00000000  0.00000000       0.006
   0.06425304  0.00000000  0.00000000       0.006
   0.08567072  0.00000000  0.00000000       0.006
   0.10708840  0.00000000  0.00000000       0.006
   0.12850608  0.00000000  0.00000000       0.006
   0.02141768  0.02141768  0.00000000       0.006
   0.04283536  0.02141768  0.00000000       0.012
   0.06425304  0.02141768  0.00000000       0.012
   0.08567072  0.02141768  0.00000000       0.012
   0.10708840  0.02141768  0.00000000       0.012
   0.12850608  0.02141768  0.00000000       0.012
   0.04283536  0.04283536  0.00000000       0.006
   0.06425304  0.04283536  0.00000000       0.012
   0.08567072  0.04283536  0.00000000       0.012
   0.10708840  0.04283536  0.00000000       0.012
   0.12850608  0.04283536  0.00000000       0.012
   0.06425304  0.06425304  0.00000000       0.006
   0.08567072  0.06425304  0.00000000       0.012
   0.10708840  0.06425304  0.00000000       0.012
   0.12850608  0.06425304  0.00000000       0.012
   0.08567072  0.08567072  0.00000000       0.006
   0.10708840  0.08567072  0.00000000       0.012
   0.12850608  0.08567072  0.00000000       0.012
   0.10708840  0.10708840  0.00000000       0.006
   0.12850608  0.10708840  0.00000000       0.012
   0.12850608  0.12850608  0.00000000       0.006
   0.00000000  0.00000000  0.02320030       0.003
   0.02141768  0.00000000  0.02320030       0.012
   0.04283536  0.00000000  0.02320030       0.012
   0.06425304  0.00000000  0.02320030       0.012
   0.08567072  0.00000000  0.02320030       0.012
   0.10708840  0.00000000  0.02320030       0.012
   0.12850608  0.00000000  0.02320030       0.012
   0.02141768  0.02141768  0.02320030       0.012
   0.04283536  0.02141768  0.02320030       0.024
   0.06425304  0.02141768  0.02320030       0.024
   0.08567072  0.02141768  0.02320030       0.024
   0.10708840  0.02141768  0.02320030       0.024
   0.12850608  0.02141768  0.02320030       0.024
   0.04283536  0.04283536  0.02320030       0.012
   0.06425304  0.04283536  0.02320030       0.024
   0.08567072  0.04283536  0.02320030       0.024
   0.10708840  0.04283536  0.02320030       0.024
   0.12850608  0.04283536  0.02320030       0.024
   0.06425304  0.06425304  0.02320030       0.012
   0.08567072  0.06425304  0.02320030       0.024
   0.10708840  0.06425304  0.02320030       0.024
   0.12850608  0.06425304  0.02320030       0.024
   0.08567072  0.08567072  0.02320030       0.012
   0.10708840  0.08567072  0.02320030       0.024
   0.12850608  0.08567072  0.02320030       0.024
   0.10708840  0.10708840  0.02320030       0.012
   0.12850608  0.10708840  0.02320030       0.024
   0.12850608  0.12850608  0.02320030       0.012
   0.00000000  0.00000000  0.04640061       0.001
   0.02141768  0.00000000  0.04640061       0.006
   0.04283536  0.00000000  0.04640061       0.006
   0.06425304  0.00000000  0.04640061       0.006
   0.08567072  0.00000000  0.04640061       0.006
   0.10708840  0.00000000  0.04640061       0.006
   0.12850608  0.00000000  0.04640061       0.006
   0.02141768  0.02141768  0.04640061       0.006
   0.04283536  0.02141768  0.04640061       0.012
   0.06425304  0.02141768  0.04640061       0.012
   0.08567072  0.02141768  0.04640061       0.012
   0.10708840  0.02141768  0.04640061       0.012
   0.12850608  0.02141768  0.04640061       0.012
   0.04283536  0.04283536  0.04640061       0.006
   0.06425304  0.04283536  0.04640061       0.012
   0.08567072  0.04283536  0.04640061       0.012
   0.10708840  0.04283536  0.04640061       0.012
   0.12850608  0.04283536  0.04640061       0.012
   0.06425304  0.06425304  0.04640061       0.006
   0.08567072  0.06425304  0.04640061       0.012
   0.10708840  0.06425304  0.04640061       0.012
   0.12850608  0.06425304  0.04640061       0.012
   0.08567072  0.08567072  0.04640061       0.006
   0.10708840  0.08567072  0.04640061       0.012
   0.12850608  0.08567072  0.04640061       0.012
   0.10708840  0.10708840  0.04640061       0.006
   0.12850608  0.10708840  0.04640061       0.012
   0.12850608  0.12850608  0.04640061       0.006
 
 k-points in reciprocal lattice and weights: pymatgen with grid density = 8800 / numb
   0.00000000  0.00000000  0.00000000       0.001
   0.07692308  0.00000000  0.00000000       0.006
   0.15384615  0.00000000  0.00000000       0.006
   0.23076923  0.00000000  0.00000000       0.006
   0.30769231  0.00000000  0.00000000       0.006
   0.38461538  0.00000000  0.00000000       0.006
   0.46153846  0.00000000  0.00000000       0.006
   0.07692308  0.07692308  0.00000000       0.006
   0.15384615  0.07692308  0.00000000       0.012
   0.23076923  0.07692308  0.00000000       0.012
   0.30769231  0.07692308  0.00000000       0.012
   0.38461538  0.07692308  0.00000000       0.012
   0.46153846  0.07692308  0.00000000       0.012
   0.15384615  0.15384615  0.00000000       0.006
   0.23076923  0.15384615  0.00000000       0.012
   0.30769231  0.15384615  0.00000000       0.012
   0.38461538  0.15384615  0.00000000       0.012
   0.46153846  0.15384615  0.00000000       0.012
   0.23076923  0.23076923  0.00000000       0.006
   0.30769231  0.23076923  0.00000000       0.012
   0.38461538  0.23076923  0.00000000       0.012
   0.46153846  0.23076923  0.00000000       0.012
   0.30769231  0.30769231  0.00000000       0.006
   0.38461538  0.30769231  0.00000000       0.012
   0.46153846  0.30769231  0.00000000       0.012
   0.38461538  0.38461538  0.00000000       0.006
   0.46153846  0.38461538  0.00000000       0.012
   0.46153846  0.46153846  0.00000000       0.006
   0.00000000  0.00000000  0.25000000       0.003
   0.07692308  0.00000000  0.25000000       0.012
   0.15384615  0.00000000  0.25000000       0.012
   0.23076923  0.00000000  0.25000000       0.012
   0.30769231  0.00000000  0.25000000       0.012
   0.38461538  0.00000000  0.25000000       0.012
   0.46153846  0.00000000  0.25000000       0.012
   0.07692308  0.07692308  0.25000000       0.012
   0.15384615  0.07692308  0.25000000       0.024
   0.23076923  0.07692308  0.25000000       0.024
   0.30769231  0.07692308  0.25000000       0.024
   0.38461538  0.07692308  0.25000000       0.024
   0.46153846  0.07692308  0.25000000       0.024
   0.15384615  0.15384615  0.25000000       0.012
   0.23076923  0.15384615  0.25000000       0.024
   0.30769231  0.15384615  0.25000000       0.024
   0.38461538  0.15384615  0.25000000       0.024
   0.46153846  0.15384615  0.25000000       0.024
   0.23076923  0.23076923  0.25000000       0.012
   0.30769231  0.23076923  0.25000000       0.024
   0.38461538  0.23076923  0.25000000       0.024
   0.46153846  0.23076923  0.25000000       0.024
   0.30769231  0.30769231  0.25000000       0.012
   0.38461538  0.30769231  0.25000000       0.024
   0.46153846  0.30769231  0.25000000       0.024
   0.38461538  0.38461538  0.25000000       0.012
   0.46153846  0.38461538  0.25000000       0.024
   0.46153846  0.46153846  0.25000000       0.012
   0.00000000  0.00000000  0.50000000       0.001
   0.07692308  0.00000000  0.50000000       0.006
   0.15384615  0.00000000  0.50000000       0.006
   0.23076923  0.00000000  0.50000000       0.006
   0.30769231  0.00000000  0.50000000       0.006
   0.38461538  0.00000000  0.50000000       0.006
   0.46153846  0.00000000  0.50000000       0.006
   0.07692308  0.07692308  0.50000000       0.006
   0.15384615  0.07692308  0.50000000       0.012
   0.23076923  0.07692308  0.50000000       0.012
   0.30769231  0.07692308  0.50000000       0.012
   0.38461538  0.07692308  0.50000000       0.012
   0.46153846  0.07692308  0.50000000       0.012
   0.15384615  0.15384615  0.50000000       0.006
   0.23076923  0.15384615  0.50000000       0.012
   0.30769231  0.15384615  0.50000000       0.012
   0.38461538  0.15384615  0.50000000       0.012
   0.46153846  0.15384615  0.50000000       0.012
   0.23076923  0.23076923  0.50000000       0.006
   0.30769231  0.23076923  0.50000000       0.012
   0.38461538  0.23076923  0.50000000       0.012
   0.46153846  0.23076923  0.50000000       0.012
   0.30769231  0.30769231  0.50000000       0.006
   0.38461538  0.30769231  0.50000000       0.012
   0.46153846  0.30769231  0.50000000       0.012
   0.38461538  0.38461538  0.50000000       0.006
   0.46153846  0.38461538  0.50000000       0.012
   0.46153846  0.46153846  0.50000000       0.006
 
 position of ions in fractional coordinates (direct lattice) 
   0.00000000  0.50000000  0.16662429
   0.00000000  0.50000000  0.50000000
   0.00000000  0.50000000  0.83337571
   0.50000000  0.50000000  0.00000000
   0.50000000  0.50000000  0.33326308
   0.50000000  0.50000000  0.66673692
   0.50000000  0.00000000  0.16662429
   0.50000000  0.00000000  0.50000000
   0.50000000  0.00000000  0.83337571
   0.00000000  0.00000000  0.00000000
   0.00000000  0.00000000  0.33331185
   0.00000000  0.00000000  0.66668815
 
 position of ions in cartesian coordinates  (Angst):
   0.00000000  1.79578460  1.79549677
   0.00000000  1.79578460  5.38786034
   0.00000000  1.79578460  8.98022392
   1.79578460  1.79578460  0.00000000
   1.79578460  1.79578460  3.59114986
   1.79578460  1.79578460  7.18457083
   1.79578460  0.00000000  1.79549677
   1.79578460  0.00000000  5.38786034
   1.79578460  0.00000000  8.98022392
   0.00000000  0.00000000  0.00000000
   0.00000000  0.00000000  3.59167534
   0.00000000  0.00000000  7.18404534
 


--------------------------------------------------------------------------------------------------------


 k-point     1 :   0.0000 0.0000 0.0000  plane waves:    3713
 k-point     2 :   0.0769 0.0000 0.0000  plane waves:    3747
 k-point     3 :   0.1538 0.0000 0.0000  plane waves:    3765
 k-point     4 :   0.2308 0.0000 0.0000  plane waves:    3753
 k-point     5 :   0.3077 0.0000 0.0000  plane waves:    3755
 k-point     6 :   0.3846 0.0000 0.0000  plane waves:    3744
 k-point     7 :   0.4615 0.0000 0.0000  plane waves:    3734
 k-point     8 :   0.0769 0.0769 0.0000  plane waves:    3741
 k-point     9 :   0.1538 0.0769 0.0000  plane waves:    3760
 k-point    10 :   0.2308 0.0769 0.0000  plane waves:    3752
 k-point    11 :   0.3077 0.0769 0.0000  plane waves:    3746
 k-point    12 :   0.3846 0.0769 0.0000  plane waves:    3737
 k-point    13 :   0.4615 0.0769 0.0000  plane waves:    3733
 k-point    14 :   0.1538 0.1538 0.0000  plane waves:    3753
 k-point    15 :   0.2308 0.1538 0.0000  plane waves:    3745
 k-point    16 :   0.3077 0.1538 0.0000  plane waves:    3738
 k-point    17 :   0.3846 0.1538 0.0000  plane waves:    3725
 k-point    18 :   0.4615 0.1538 0.0000  plane waves:    3732
 k-point    19 :   0.2308 0.2308 0.0000  plane waves:    3749
 k-point    20 :   0.3077 0.2308 0.0000  plane waves:    3740
 k-point    21 :   0.3846 0.2308 0.0000  plane waves:    3728
 k-point    22 :   0.4615 0.2308 0.0000  plane waves:    3717
 k-point    23 :   0.3077 0.3077 0.0000  plane waves:    3738
 k-point    24 :   0.3846 0.3077 0.0000  plane waves:    3740
 k-point    25 :   0.4615 0.3077 0.0000  plane waves:    3733
 k-point    26 :   0.3846 0.3846 0.0000  plane waves:    3738
 k-point    27 :   0.4615 0.3846 0.0000  plane waves:    3746
 k-point    28 :   0.4615 0.4615 0.0000  plane waves:    3754
 k-point    29 :   0.0000 0.0000 0.2500  plane waves:    3768
 k-point    30 :   0.0769 0.0000 0.2500  plane waves:    3753
 k-point    31 :   0.1538 0.0000 0.2500  plane waves:    3757
 k-point    32 :   0.2308 0.0000 0.2500  plane waves:    3764
 k-point    33 :   0.3077 0.0000 0.2500  plane waves:    3749
 k-point    34 :   0.3846 0.0000 0.2500  plane waves:    3723
 k-point    35 :   0.4615 0.0000 0.2500  plane waves:    3736
 k-point    36 :   0.0769 0.0769 0.2500  plane waves:    3756
 k-point    37 :   0.1538 0.0769 0.2500  plane waves:    3762
 k-point    38 :   0.2308 0.0769 0.2500  plane waves:    3754
 k-point    39 :   0.3077 0.0769 0.2500  plane waves:    3743
 k-point    40 :   0.3846 0.0769 0.2500  plane waves:    3731
 k-point    41 :   0.4615 0.0769 0.2500  plane waves:    3735
 k-point    42 :   0.1538 0.1538 0.2500  plane waves:    3761
 k-point    43 :   0.2308 0.1538 0.2500  plane waves:    3741
 k-point    44 :   0.3077 0.1538 0.2500  plane waves:    3729
 k-point    45 :   0.3846 0.1538 0.2500  plane waves:    3733
 k-point    46 :   0.4615 0.1538 0.2500  plane waves:    3728
 k-point    47 :   0.2308 0.2308 0.2500  plane waves:    3742
 k-point    48 :   0.3077 0.2308 0.2500  plane waves:    3738
 k-point    49 :   0.3846 0.2308 0.2500  plane waves:    3738
 k-point    50 :   0.4615 0.2308 0.2500  plane waves:    3737
 k-point    51 :   0.3077 0.3077 0.2500  plane waves:    3728
 k-point    52 :   0.3846 0.3077 0.2500  plane waves:    3740
 k-point    53 :   0.4615 0.3077 0.2500  plane waves:    3736
 k-point    54 :   0.3846 0.3846 0.2500  plane waves:    3747
 k-point    55 :   0.4615 0.3846 0.2500  plane waves:    3751
 k-point    56 :   0.4615 0.4615 0.2500  plane waves:    3750
 k-point    57 :   0.0000 0.0000 0.5000  plane waves:    3760
 k-point    58 :   0.0769 0.0000 0.5000  plane waves:    3772
 k-point    59 :   0.1538 0.0000 0.5000  plane waves:    3770
 k-point    60 :   0.2308 0.0000 0.5000  plane waves:    3768
 k-point    61 :   0.3077 0.0000 0.5000  plane waves:    3752
 k-point    62 :   0.3846 0.0000 0.5000  plane waves:    3718
 k-point    63 :   0.4615 0.0000 0.5000  plane waves:    3734
 k-point    64 :   0.0769 0.0769 0.5000  plane waves:    3776
 k-point    65 :   0.1538 0.0769 0.5000  plane waves:    3764
 k-point    66 :   0.2308 0.0769 0.5000  plane waves:    3754
 k-point    67 :   0.3077 0.0769 0.5000  plane waves:    3742
 k-point    68 :   0.3846 0.0769 0.5000  plane waves:    3728
 k-point    69 :   0.4615 0.0769 0.5000  plane waves:    3736
 k-point    70 :   0.1538 0.1538 0.5000  plane waves:    3752
 k-point    71 :   0.2308 0.1538 0.5000  plane waves:    3746
 k-point    72 :   0.3077 0.1538 0.5000  plane waves:    3742
 k-point    73 :   0.3846 0.1538 0.5000  plane waves:    3748
 k-point    74 :   0.4615 0.1538 0.5000  plane waves:    3748
 k-point    75 :   0.2308 0.2308 0.5000  plane waves:    3744
 k-point    76 :   0.3077 0.2308 0.5000  plane waves:    3726
 k-point    77 :   0.3846 0.2308 0.5000  plane waves:    3730
 k-point    78 :   0.4615 0.2308 0.5000  plane waves:    3736
 k-point    79 :   0.3077 0.3077 0.5000  plane waves:    3726
 k-point    80 :   0.3846 0.3077 0.5000  plane waves:    3734
 k-point    81 :   0.4615 0.3077 0.5000  plane waves:    3734
 k-point    82 :   0.3846 0.3846 0.5000  plane waves:    3744
 k-point    83 :   0.4615 0.3846 0.5000  plane waves:    3750
 k-point    84 :   0.4615 0.4615 0.5000  plane waves:    3748

 maximum and minimum number of plane-waves per node :      3776     3713

 maximum number of plane-waves:      3776
 maximum index in each direction: 
   IXMAX=    6   IYMAX=    6   IZMAX=   20
   IXMIN=   -7   IYMIN=   -7   IZMIN=  -20


 serial   3D FFT for wavefunctions
 parallel 3D FFT for charge:
    minimum data exchange during FFTs selected (reduces bandwidth)


 total amount of memory used by VASP MPI-rank0   258808. kBytes
=======================================================================

   base      :      30000. kBytes
   nonl-proj :      92073. kBytes
   fftplans  :        848. kBytes
   grid      :       6490. kBytes
   one-center:        373. kBytes
   wavefun   :     129024. kBytes
 
     INWAV:  cpu time      0.0001: real time      0.0001
 Broyden mixing: mesh for mixing (old mesh)
   NGX = 13   NGY = 13   NGZ = 41
  (NGX  = 56   NGY  = 56   NGZ  =160)
  gives a total of   6929 points

 initial charge density was supplied:
 charge density of overlapping atoms calculated
 number of electron     156.0000000 magnetization      21.9800000
 charge density for first step will be calculated from the start-wavefunctions


--------------------------------------------------------------------------------------------------------


 Maximum index for augmentation-charges         1058 (set IRDMAX)


--------------------------------------------------------------------------------------------------------


 First call to EWALD:  gamma=   0.342
 Maximum number of real-space cells 4x 4x 2
 Maximum number of reciprocal cells 2x 2x 5

    FEWALD:  cpu time      0.0020: real time      0.0020


--------------------------------------- Ionic step        1  -------------------------------------------




--------------------------------------- Iteration      1(   1)  ---------------------------------------


    POTLOK:  cpu time      0.0338: real time      0.0348
    SETDIJ:  cpu time      0.0160: real time      0.0164
    TRIAL :  cpu time      5.4330: real time      5.4738
    CORREC:  cpu time      0.0046: real time      0.0046
    --------------------------------------------
      LOOP:  cpu time      5.5866: real time      5.6504

 eigenvalue-minimisations  : 43168
 total energy-change (2. order) : 0.1761861E+04  (-0.9129582E+04)
 number of electron     156.0000000 magnetization      21.9800000
 augmentation part      156.0000000 magnetization      21.9800000

 Free energy of the ion-electron system (eV)
  ---------------------------------------------------
  alpha Z        PSCENC =      1224.38942132
  Ewald energy   TEWEN  =    -18801.70898936
  -Hartree energ DENC   =     -5640.22826432
  -exchange      EXHF   =         0.00000000
  -V(xc)+E(xc)   XCENC  =       661.25812379
  PAW double counting   =     20095.32762435   -20819.38272956
  entropy T*S    EENTRO =         0.00316008
  eigenvalues    EBANDS =       738.10016585
  atomic energy  EATOM  =     24304.10294433
  ---------------------------------------------------
  free energy    TOTEN  =      1761.86145647 eV

  energy without entropy =     1761.85829640  energy(sigma->0) =     1761.86040311


--------------------------------------------------------------------------------------------------------




--------------------------------------- Iteration      1(   2)  ---------------------------------------


    TRIAL :  cpu time      5.2930: real time      5.3331
    CORREC:  cpu time      0.0027: real time      0.0028
    --------------------------------------------
      LOOP:  cpu time      5.3109: real time      5.3576

 eigenvalue-minimisations  : 43040
 total energy-change (2. order) :-0.1754772E+04  (-0.1662588E+04)
 number of electron     156.0000000 magnetization      21.9800000
 augmentation part      156.0000000 magnetization      21.9800000

 Free energy of the ion-electron system (eV)
  ---------------------------------------------------
  alpha Z        PSCENC =      1224.38942132
  Ewald energy   TEWEN  =    -18801.70898936
  -Hartree energ DENC   =     -5640.22826432
  -exchange      EXHF   =         0.00000000
  -V(xc)+E(xc)   XCENC  =       661.25812379
  PAW double counting   =     20095.32762435   -20819.38272956
  entropy T*S    EENTRO =        -0.00794560
  eigenvalues    EBANDS =     -1016.66035091
  atomic energy  EATOM  =     24304.10294433
  ---------------------------------------------------
  free energy    TOTEN  =         7.08983403 eV

  energy without entropy =        7.09777964  energy(sigma->0) =        7.09248257


--------------------------------------------------------------------------------------------------------




--------------------------------------- Iteration      1(   3)  ---------------------------------------


    TRIAL :  cpu time      6.3641: real time      6.4085
    CORREC:  cpu time      0.0024: real time      0.0025
    --------------------------------------------
      LOOP:  cpu time      6.3819: real time      6.4333

 eigenvalue-minimisations  : 50656
 total energy-change (2. order) :-0.1091976E+03  (-0.1077350E+03)
 number of electron     156.0000000 magnetization      21.9800000
 augmentation part      156.0000000 magnetization      21.9800000

 Free energy of the ion-electron system (eV)
  ---------------------------------------------------
  alpha Z        PSCENC =      1224.38942132
  Ewald energy   TEWEN  =    -18801.70898936
  -Hartree energ DENC   =     -5640.22826432
  -exchange      EXHF   =         0.00000000
  -V(xc)+E(xc)   XCENC  =       661.25812379
  PAW double counting   =     20095.32762435   -20819.38272956
  entropy T*S    EENTRO =        -0.02733323
  eigenvalues    EBANDS =     -1125.83856313
  atomic energy  EATOM  =     24304.10294433
  ---------------------------------------------------
  free energy    TOTEN  =      -102.10776581 eV

  energy without entropy =     -102.08043258  energy(sigma->0) =     -102.09865473


--------------------------------------------------------------------------------------------------------




--------------------------------------- Iteration      1(   4)  ---------------------------------------


    TRIAL :  cpu time      5.7954: real time      5.8367
    CORREC:  cpu time      0.0025: real time      0.0025
    --------------------------------------------
      LOOP:  cpu time      5.8147: real time      5.8607

 eigenvalue-minimisations  : 45728
 total energy-change (2. order) :-0.1482669E+01  (-0.1482365E+01)
 number of electron     156.0000000 magnetization      21.9800000
 augmentation part      156.0000000 magnetization      21.9800000

 Free energy of the ion-electron system (eV)
  ---------------------------------------------------
  alpha Z        PSCENC =      1224.38942132
  Ewald energy   TEWEN  =    -18801.70898936
  -Hartree energ DENC   =     -5640.22826432
  -exchange      EXHF   =         0.00000000
  -V(xc)+E(xc)   XCENC  =       661.25812379
  PAW double counting   =     20095.32762435   -20819.38272956
  entropy T*S    EENTRO =        -0.02719784
  eigenvalues    EBANDS =     -1127.32136786
  atomic energy  EATOM  =     24304.10294433
  ---------------------------------------------------
  free energy    TOTEN  =      -103.59043515 eV

  energy without entropy =     -103.56323731  energy(sigma->0) =     -103.58136921


--------------------------------------------------------------------------------------------------------




--------------------------------------- Iteration      1(   5)  ---------------------------------------


    TRIAL :  cpu time      6.7776: real time      6.8247
    CORREC:  cpu time      0.0026: real time      0.0026
    CHARGE:  cpu time      0.1576: real time      0.1590
    --------------------------------------------
      LOOP:  cpu time      6.9601: real time      7.0089

 eigenvalue-minimisations  : 53152
 total energy-change (2. order) :-0.2549243E-01  (-0.2549168E-01)
 number of electron     155.9999840 magnetization      16.0186935
 augmentation part       79.3363779 magnetization      11.6761699

 Free energy of the ion-electron system (eV)
  ---------------------------------------------------
  alpha Z        PSCENC =      1224.38942132
  Ewald energy   TEWEN  =    -18801.70898936
  -Hartree energ DENC   =     -5640.22826432
  -exchange      EXHF   =         0.00000000
  -V(xc)+E(xc)   XCENC  =       661.25812379
  PAW double counting   =     20095.32762435   -20819.38272956
  entropy T*S    EENTRO =        -0.02719538
  eigenvalues    EBANDS =     -1127.34686275
  atomic energy  EATOM  =     24304.10294433
  ---------------------------------------------------
  free energy    TOTEN  =      -103.61592758 eV

  energy without entropy =     -103.58873220  energy(sigma->0) =     -103.60686246


--------------------------------------------------------------------------------------------------------




--------------------------------------- Iteration      1(   6)  ---------------------------------------


    POTLOK:  cpu time      0.0217: real time      0.0219
    SETDIJ:  cpu time      0.0083: real time      0.0083
    TRIAL :  cpu time      2.6656: real time      2.6909
    CORREC:  cpu time      1.0502: real time      1.0598
    CHARGE:  cpu time      0.1460: real time      0.1466
    --------------------------------------------
      LOOP:  cpu time      3.9083: real time      3.9490

 eigenvalue-minimisations  :     0
 total energy-change (2. order) : 0.4316706E+02  (-0.2517997E+02)
 number of electron     155.9999833 magnetization      17.2398872
 augmentation part       83.3153130 magnetization      12.9303660

 Free energy of the ion-electron system (eV)
  ---------------------------------------------------
  alpha Z        PSCENC =      1224.38942132
  Ewald energy   TEWEN  =    -18801.70898936
  -Hartree energ DENC   =     -4613.86678622
  -exchange      EXHF   =         0.00000000
  -V(xc)+E(xc)   XCENC  =       616.52354461
  PAW double counting   =     22273.80310182   -22949.13683930
  entropy T*S    EENTRO =        -0.02387407
  eigenvalues    EBANDS =     -2114.52807346
  atomic energy  EATOM  =     24304.10294433
  ---------------------------------------------------
  free energy    TOTEN  =       -60.44887164 eV

  energy without entropy =      -60.42499757  energy(sigma->0) =      -60.44091361


--------------------------------------------------------------------------------------------------------




--------------------------------------- Iteration      1(   7)  ---------------------------------------


    POTLOK:  cpu time      0.0214: real time      0.0217
    SETDIJ:  cpu time      0.0081: real time      0.0082
    TRIAL :  cpu time      2.5389: real time      2.5637
    CORREC:  cpu time      1.0500: real time      1.0616
    CHARGE:  cpu time      0.1423: real time      0.1430
    --------------------------------------------
      LOOP:  cpu time      3.7786: real time      3.8209

 eigenvalue-minimisations  :     0
 total energy-change (2. order) :-0.2575486E+02  (-0.2976242E+01)
 number of electron     155.9999833 magnetization      17.7705732
 augmentation part       84.0658605 magnetization      13.4313944

 Free energy of the ion-electron system (eV)
  ---------------------------------------------------
  alpha Z        PSCENC =      1224.38942132
  Ewald energy   TEWEN  =    -18801.70898936
  -Hartree energ DENC   =     -5155.13882974
  -exchange      EXHF   =         0.00000000
  -V(xc)+E(xc)   XCENC  =       639.18325920
  PAW double counting   =     22798.87302453   -23580.29094715
  entropy T*S    EENTRO =        -0.02524328
  eigenvalues    EBANDS =     -1515.58973783
  atomic energy  EATOM  =     24304.10294433
  ---------------------------------------------------
  free energy    TOTEN  =       -86.20372877 eV

  energy without entropy =      -86.17848549  energy(sigma->0) =      -86.19531435


--------------------------------------------------------------------------------------------------------




--------------------------------------- Iteration      1(   8)  ---------------------------------------


    POTLOK:  cpu time      0.0213: real time      0.0215
    SETDIJ:  cpu time      0.0082: real time      0.0083
    TRIAL :  cpu time      2.4721: real time      2.4971
    CORREC:  cpu time      1.0496: real time      1.0611
    CHARGE:  cpu time      0.1414: real time      0.1421
    --------------------------------------------
      LOOP:  cpu time      3.7113: real time      3.7539

 eigenvalue-minimisations  :     0
 total energy-change (2. order) :-0.2978443E+01  (-0.9823728E+00)
 number of electron     155.9999833 magnetization      17.9824755
 augmentation part       84.3141442 magnetization      13.6242829

 Free energy of the ion-electron system (eV)
  ---------------------------------------------------
  alpha Z        PSCENC =      1224.38942132
  Ewald energy   TEWEN  =    -18801.70898936
  -Hartree energ DENC   =     -5229.08246188
  -exchange      EXHF   =         0.00000000
  -V(xc)+E(xc)   XCENC  =       642.88235772
  PAW double counting   =     22878.28199031   -23658.80204777
  entropy T*S    EENTRO =        -0.02613727
  eigenvalues    EBANDS =     -1449.22014341
  atomic energy  EATOM  =     24304.10294433
  ---------------------------------------------------
  free energy    TOTEN  =       -89.18217202 eV

  energy without entropy =      -89.15603475  energy(sigma->0) =      -89.17345960


--------------------------------------------------------------------------------------------------------




--------------------------------------- Iteration      1(   9)  ---------------------------------------


    POTLOK:  cpu time      0.0215: real time      0.0217
    SETDIJ:  cpu time      0.0078: real time      0.0078
    TRIAL :  cpu time      2.5615: real time      2.5868
    CORREC:  cpu time      1.0466: real time      1.0580
    CHARGE:  cpu time      0.1413: real time      0.1420
    --------------------------------------------
      LOOP:  cpu time      3.7977: real time      3.8393

 eigenvalue-minimisations  :     0
 total energy-change (2. order) :-0.1286404E+01  (-0.1794636E+00)
 number of electron     155.9999833 magnetization      18.0280134
 augmentation part       84.3424219 magnetization      13.6638839

 Free energy of the ion-electron system (eV)
  ---------------------------------------------------
  alpha Z        PSCENC =      1224.38942132
  Ewald energy   TEWEN  =    -18801.70898936
  -Hartree energ DENC   =     -5252.58396692
  -exchange      EXHF   =         0.00000000
  -V(xc)+E(xc)   XCENC  =       644.13217513
  PAW double counting   =     22921.94678340   -23701.40100681
  entropy T*S    EENTRO =        -0.02604100
  eigenvalues    EBANDS =     -1429.31979970
  atomic energy  EATOM  =     24304.10294433
  ---------------------------------------------------
  free energy    TOTEN  =       -90.46857588 eV

  energy without entropy =      -90.44253488  energy(sigma->0) =      -90.45989555


--------------------------------------------------------------------------------------------------------




--------------------------------------- Iteration      1(  10)  ---------------------------------------


    POTLOK:  cpu time      0.0210: real time      0.0212
    SETDIJ:  cpu time      0.0082: real time      0.0083
    TRIAL :  cpu time      2.5257: real time      2.5511
    CORREC:  cpu time      1.1081: real time      1.1195
    CHARGE:  cpu time      0.1381: real time      0.1390
    --------------------------------------------
      LOOP:  cpu time      3.8179: real time      3.8615

 eigenvalue-minimisations  :     0
 total energy-change (2. order) :-0.1717246E+00  (-0.7772441E+00)
 number of electron     155.9999834 magnetization      18.4622576
 augmentation part       84.4622965 magnetization      14.0308124

 Free energy of the ion-electron system (eV)
  ---------------------------------------------------
  alpha Z        PSCENC =      1224.38942132
  Ewald energy   TEWEN  =    -18801.70898936
  -Hartree energ DENC   =     -5255.26601741
  -exchange      EXHF   =         0.00000000
  -V(xc)+E(xc)   XCENC  =       644.28160366
  PAW double counting   =     22924.63629711   -23703.06713357
  entropy T*S    EENTRO =        -0.02135256
  eigenvalues    EBANDS =     -1427.98238557
  atomic energy  EATOM  =     24304.10294433
  ---------------------------------------------------
  free energy    TOTEN  =       -90.64030049 eV

  energy without entropy =      -90.61894793  energy(sigma->0) =      -90.63318297


--------------------------------------------------------------------------------------------------------




--------------------------------------- Iteration      1(  11)  ---------------------------------------


    POTLOK:  cpu time      0.0211: real time      0.0213
    SETDIJ:  cpu time      0.0079: real time      0.0080
    TRIAL :  cpu time      2.4991: real time      2.5250
    CORREC:  cpu time      1.1321: real time      1.1437
    CHARGE:  cpu time      0.1358: real time      0.1365
    --------------------------------------------
      LOOP:  cpu time      3.8140: real time      3.8572

 eigenvalue-minimisations  :     0
 total energy-change (2. order) :-0.7758077E+00  (-0.2011144E+00)
 number of electron     155.9999834 magnetization      18.5710885
 augmentation part       84.5003151 magnetization      14.1248316

 Free energy of the ion-electron system (eV)
  ---------------------------------------------------
  alpha Z        PSCENC =      1224.38942132
  Ewald energy   TEWEN  =    -18801.70898936
  -Hartree energ DENC   =     -5268.96721033
  -exchange      EXHF   =         0.00000000
  -V(xc)+E(xc)   XCENC  =       645.04212942
  PAW double counting   =     22914.51620460   -23679.02654941
  entropy T*S    EENTRO =        -0.01664599
  eigenvalues    EBANDS =     -1429.74270618
  atomic energy  EATOM  =     24304.10294433
  ---------------------------------------------------
  free energy    TOTEN  =       -91.41610818 eV

  energy without entropy =      -91.39946218  energy(sigma->0) =      -91.41055951


--------------------------------------------------------------------------------------------------------




--------------------------------------- Iteration      1(  12)  ---------------------------------------


    POTLOK:  cpu time      0.0213: real time      0.0215
    SETDIJ:  cpu time      0.0082: real time      0.0082
    TRIAL :  cpu time      2.5197: real time      2.5457
    CORREC:  cpu time      1.0436: real time      1.0551
    CHARGE:  cpu time      0.1396: real time      0.1403
    --------------------------------------------
      LOOP:  cpu time      3.7498: real time      3.7930

 eigenvalue-minimisations  :     0
 total energy-change (2. order) :-0.3068645E+00  (-0.1517165E+00)
 number of electron     155.9999834 magnetization      18.5825855
 augmentation part       84.5176566 magnetization      14.1357097

 Free energy of the ion-electron system (eV)
  ---------------------------------------------------
  alpha Z        PSCENC =      1224.38942132
  Ewald energy   TEWEN  =    -18801.70898936
  -Hartree energ DENC   =     -5273.47661485
  -exchange      EXHF   =         0.00000000
  -V(xc)+E(xc)   XCENC  =       645.28543155
  PAW double counting   =     22917.40534657   -23678.82214758
  entropy T*S    EENTRO =        -0.01654241
  eigenvalues    EBANDS =     -1428.88171862
  atomic energy  EATOM  =     24304.10294433
  ---------------------------------------------------
  free energy    TOTEN  =       -91.72297263 eV

  energy without entropy =      -91.70643022  energy(sigma->0) =      -91.71745849


--------------------------------------------------------------------------------------------------------




--------------------------------------- Iteration      1(  13)  ---------------------------------------


    POTLOK:  cpu time      0.0208: real time      0.0209
    SETDIJ:  cpu time      0.0082: real time      0.0083
    TRIAL :  cpu time      2.5025: real time      2.5283
    CORREC:  cpu time      1.0496: real time      1.0609
    CHARGE:  cpu time      0.1375: real time      0.1383
    --------------------------------------------
      LOOP:  cpu time      3.7356: real time      3.7791

 eigenvalue-minimisations  :     0
 total energy-change (2. order) :-0.1507386E+00  (-0.1633647E+00)
 number of electron     155.9999833 magnetization      18.7074683
 augmentation part       84.6889241 magnetization      14.2545754

 Free energy of the ion-electron system (eV)
  ---------------------------------------------------
  alpha Z        PSCENC =      1224.38942132
  Ewald energy   TEWEN  =    -18801.70898936
  -Hartree energ DENC   =     -5276.25709626
  -exchange      EXHF   =         0.00000000
  -V(xc)+E(xc)   XCENC  =       645.40058050
  PAW double counting   =     22919.54797679   -23681.53610649
  entropy T*S    EENTRO =        -0.01989893
  eigenvalues    EBANDS =     -1425.79589964
  atomic energy  EATOM  =     24304.10294433
  ---------------------------------------------------
  free energy    TOTEN  =       -91.87371121 eV

  energy without entropy =      -91.85381228  energy(sigma->0) =      -91.86707824


--------------------------------------------------------------------------------------------------------




--------------------------------------- Iteration      1(  14)  ---------------------------------------


    POTLOK:  cpu time      0.0217: real time      0.0220
    SETDIJ:  cpu time      0.0070: real time      0.0070
    TRIAL :  cpu time      2.5969: real time      2.6228
    CORREC:  cpu time      1.0418: real time      1.0534
    CHARGE:  cpu time      0.1374: real time      0.1381
    --------------------------------------------
      LOOP:  cpu time      3.8228: real time      3.8664

 eigenvalue-minimisations  :     0
 total energy-change (2. order) :-0.1633258E+00  (-0.2495294E-01)
 number of electron     155.9999834 magnetization      18.7629528
 augmentation part       84.6890129 magnetization      14.2993311

 Free energy of the ion-electron system (eV)
  ---------------------------------------------------
  alpha Z        PSCENC =      1224.38942132
  Ewald energy   TEWEN  =    -18801.70898936
  -Hartree energ DENC   =     -5304.57975456
  -exchange      EXHF   =         0.00000000
  -V(xc)+E(xc)   XCENC  =       646.55136234
  PAW double counting   =     22941.71221356   -23709.26949135
  entropy T*S    EENTRO =        -0.02099685
  eigenvalues    EBANDS =     -1393.21484436
  atomic energy  EATOM  =     24304.10294433
  ---------------------------------------------------
  free energy    TOTEN  =       -92.03703702 eV

  energy without entropy =      -92.01604018  energy(sigma->0) =      -92.03003807


--------------------------------------------------------------------------------------------------------




--------------------------------------- Iteration      1(  15)  ---------------------------------------


    POTLOK:  cpu time      0.0211: real time      0.0212
    SETDIJ:  cpu time      0.0083: real time      0.0083
    TRIAL :  cpu time      2.5080: real time      2.5336
    CORREC:  cpu time      1.0486: real time      1.0602
    CHARGE:  cpu time      0.1372: real time      0.1379
    --------------------------------------------
      LOOP:  cpu time      3.7425: real time      3.7842

 eigenvalue-minimisations  :     0
 total energy-change (2. order) :-0.2459018E-01  (-0.5745097E-01)
 number of electron     155.9999834 magnetization      18.9277356
 augmentation part       84.6669351 magnetization      14.4313117

 Free energy of the ion-electron system (eV)
  ---------------------------------------------------
  alpha Z        PSCENC =      1224.38942132
  Ewald energy   TEWEN  =    -18801.70898936
  -Hartree energ DENC   =     -5303.13014808
  -exchange      EXHF   =         0.00000000
  -V(xc)+E(xc)   XCENC  =       646.53354359
  PAW double counting   =     22931.07875953   -23698.25220585
  entropy T*S    EENTRO =        -0.02292540
  eigenvalues    EBANDS =     -1395.05395583
  atomic energy  EATOM  =     24304.10294433
  ---------------------------------------------------
  free energy    TOTEN  =       -92.06162721 eV

  energy without entropy =      -92.03870181  energy(sigma->0) =      -92.05398541


--------------------------------------------------------------------------------------------------------




--------------------------------------- Iteration      1(  16)  ---------------------------------------


    POTLOK:  cpu time      0.0207: real time      0.0209
    SETDIJ:  cpu time      0.0081: real time      0.0081
    TRIAL :  cpu time      2.5390: real time      2.5651
    CORREC:  cpu time      1.0559: real time      1.0673
    CHARGE:  cpu time      0.1382: real time      0.1391
    --------------------------------------------
      LOOP:  cpu time      3.7792: real time      3.8235

 eigenvalue-minimisations  :     0
 total energy-change (2. order) :-0.5710344E-01  (-0.2609357E-01)
 number of electron     155.9999834 magnetization      19.0447320
 augmentation part       84.6642926 magnetization      14.5317767

 Free energy of the ion-electron system (eV)
  ---------------------------------------------------
  alpha Z        PSCENC =      1224.38942132
  Ewald energy   TEWEN  =    -18801.70898936
  -Hartree energ DENC   =     -5294.70091062
  -exchange      EXHF   =         0.00000000
  -V(xc)+E(xc)   XCENC  =       646.32991053
  PAW double counting   =     22896.15619595   -23661.30904478
  entropy T*S    EENTRO =        -0.02306152
  eigenvalues    EBANDS =     -1405.35533262
  atomic energy  EATOM  =     24304.10294433
  ---------------------------------------------------
  free energy    TOTEN  =       -92.11873065 eV

  energy without entropy =      -92.09566913  energy(sigma->0) =      -92.11104348


--------------------------------------------------------------------------------------------------------




--------------------------------------- Iteration      1(  17)  ---------------------------------------


    POTLOK:  cpu time      0.0211: real time      0.0213
    SETDIJ:  cpu time      0.0080: real time      0.0081
    TRIAL :  cpu time      2.5583: real time      2.5841
    CORREC:  cpu time      1.0426: real time      1.0545
    CHARGE:  cpu time      0.1391: real time      0.1398
    --------------------------------------------
      LOOP:  cpu time      3.7863: real time      3.8306

 eigenvalue-minimisations  :     0
 total energy-change (2. order) :-0.2593573E-01  (-0.1648540E-01)
 number of electron     155.9999834 magnetization      19.1990941
[...]
     66      11.0158      1.02199
     67      11.0396      1.02745
     68      11.0789      1.03451
     69      11.1017      1.03530
     70      11.3087      0.63287
     71      11.3089      0.63167
     72      11.3455      0.47888
     73      11.3460      0.47657
     74      11.5360     -0.02264
     75      11.5361     -0.02268
     76      12.4678     -0.00000
     77      12.4693     -0.00000
     78      12.6634     -0.00000
     79      12.6634     -0.00000
     80      12.7123     -0.00000
     81      12.7125     -0.00000
     82      12.9258     -0.00000
     83      12.9258     -0.00000
     84      13.2098     -0.00000
     85      13.2596     -0.00000
     86      13.4524     -0.00000
     87      13.4648     -0.00000
     88      13.5090     -0.00000
     89      13.5171     -0.00000
     90      13.5828     -0.00000
     91      13.6045     -0.00000
     92      14.1320     -0.00000
     93      14.1321     -0.00000
     94      14.6350     -0.00000
     95      14.6352     -0.00000
     96      14.6534     -0.00000
     97      14.6536     -0.00000
     98      15.2470     -0.00000
     99      15.2474     -0.00000
    100      18.0388      0.00000
    101      20.1940      0.00000
    102      20.2595      0.00000
    103      20.3100      0.00000
    104      21.0814      0.00000
    105      21.0825      0.00000
    106      21.8267      0.00000
    107      21.8286      0.00000
    108      22.3709      0.00000
    109      22.3719      0.00000
    110      22.8950      0.00000
    111      22.8952      0.00000
    112      27.4144      0.00000
    113      27.4157      0.00000
    114      27.8160      0.00000
    115      27.8175      0.00000
    116      28.2406      0.00000
    117      28.2430      0.00000
    118      29.1885      0.00000
    119      29.1888      0.00000
    120      29.4663      0.00000
    121      29.4684      0.00000
    122      29.5170      0.00000
    123      30.0637      0.00000
    124      31.4663      0.00000
    125      31.4665      0.00000
    126      31.8617      0.00000
    127      31.8619      0.00000
    128      32.7831      0.00000


--------------------------------------------------------------------------------------------------------


 soft charge-density along one line, spin component           1
         0         1         2         3         4         5         6         7         8         9
 total charge-density along one line
 
 soft charge-density along one line, spin component           2
         0         1         2         3         4         5         6         7         8         9
 total charge-density along one line
 
 pseudopotential strength for first ion, spin component:           1
-43.744  -0.000  -0.000   7.110   0.000   0.000  -0.000   0.000
 -0.000 -43.745   0.000   0.000   7.110  -0.000   0.000   0.000
 -0.000   0.000 -43.619   0.000  -0.000   7.060   0.000   0.000
  7.110   0.000   0.000   5.750   0.000  -0.000  -0.000  -0.000
  0.000   7.110  -0.000   0.000   5.750  -0.000  -0.000  -0.000
  0.000  -0.000   7.060  -0.000  -0.000   5.759  -0.000  -0.000
 -0.000   0.000   0.000  -0.000  -0.000  -0.000  -1.028   0.000
  0.000   0.000   0.000  -0.000  -0.000  -0.000   0.000  -1.122
 -0.000   0.000  -0.000   0.000  -0.000   0.000  -0.000  -0.000
  0.000   0.000   0.000  -0.000   0.000  -0.000  -0.000  -0.000
 -0.000  -0.000   0.000   0.000   0.000   0.000  -0.000   0.000
 -0.000   0.000   0.000   0.000  -0.000  -0.000  -1.558   0.000
  0.000   0.000   0.000  -0.000  -0.000  -0.000   0.000  -1.651
 -0.000   0.000  -0.000   0.000  -0.000  -0.000  -0.000  -0.000
  0.000  -0.000   0.000  -0.000   0.000  -0.000  -0.000  -0.000
 -0.000  -0.000   0.000   0.000   0.000  -0.000  -0.000   0.000
 -0.000  -0.000  -0.000  -0.000  -0.000  -0.000   0.000   0.000
 -0.000  -0.000   0.000  -0.000  -0.000  -0.000   0.000   0.000
 pseudopotential strength for first ion, spin component:           2
-41.696  -0.000   0.000   6.245   0.000  -0.000   0.000   0.000
 -0.000 -41.697   0.000   0.000   6.245  -0.000  -0.000   0.000
  0.000   0.000 -41.584  -0.000  -0.000   6.199   0.000  -0.000
  6.245   0.000  -0.000   5.987   0.000  -0.000  -0.000  -0.000
  0.000   6.245  -0.000   0.000   5.987  -0.000   0.000  -0.000
 -0.000  -0.000   6.199  -0.000  -0.000   5.996  -0.000   0.000
  0.000  -0.000   0.000  -0.000   0.000  -0.000   0.593   0.000
  0.000   0.000  -0.000  -0.000  -0.000   0.000   0.000   0.513
 -0.000   0.000  -0.000   0.000  -0.000   0.000  -0.000  -0.000
 -0.000   0.000   0.000   0.000   0.000  -0.000  -0.000  -0.000
 -0.000  -0.000   0.000   0.000   0.000  -0.000  -0.000   0.000
  0.000  -0.000   0.000   0.000   0.000  -0.000   0.036   0.000
  0.000   0.000  -0.000  -0.000  -0.000   0.000   0.000  -0.043
 -0.000   0.000  -0.000   0.000  -0.000   0.000  -0.000  -0.000
 -0.000   0.000   0.000   0.000  -0.000  -0.000  -0.000  -0.000
 -0.000  -0.000   0.000   0.000   0.000  -0.000  -0.000   0.000
 -0.000  -0.000  -0.000  -0.000  -0.000  -0.000  -0.000   0.000
 -0.000  -0.000  -0.000  -0.000  -0.000  -0.000  -0.000   0.000
 total augmentation occupancy for first ion, spin component:           1
  1.992   0.000   0.000  -0.023  -0.000   0.000   0.000   0.000  -0.000   0.000   0.000   0.000  -0.000   0.000   0.000  -0.000
  0.000   1.992  -0.000  -0.000  -0.023  -0.000   0.000   0.000  -0.000   0.000  -0.000  -0.000   0.000   0.000   0.000   0.000
  0.000  -0.000   1.992  -0.000   0.000  -0.023   0.000   0.000  -0.000  -0.000   0.000   0.000   0.000  -0.000   0.000   0.000
 -0.023  -0.000  -0.000   0.218   0.000  -0.000  -0.000   0.000  -0.000   0.000   0.000   0.000  -0.000   0.000   0.000  -0.000
 -0.000  -0.023   0.000   0.000   0.218  -0.000   0.000   0.000   0.000   0.000  -0.000   0.000   0.000  -0.000   0.000   0.000
  0.000  -0.000  -0.023  -0.000  -0.000   0.195   0.000   0.000   0.000   0.000   0.000   0.000   0.000  -0.000  -0.000   0.000
  0.000   0.000   0.000  -0.000   0.000   0.000   3.055   0.000   0.000  -0.000   0.000  -1.939   0.000   0.000   0.000   0.000
  0.000   0.000   0.000   0.000   0.000   0.000   0.000   3.112  -0.000   0.000  -0.000  -0.000  -2.415   0.000   0.000   0.000
 -0.000  -0.000  -0.000  -0.000   0.000   0.000   0.000  -0.000   3.569   0.000   0.185   0.000  -0.000  -2.307  -0.000  -0.094
  0.000   0.000  -0.000   0.000   0.000   0.000  -0.000   0.000   0.000   3.042  -0.000   0.000   0.000  -0.000  -1.931   0.000
  0.000  -0.000   0.000   0.000  -0.000   0.000   0.000  -0.000   0.185  -0.000   3.346   0.000   0.000  -0.094   0.000  -2.192
  0.000  -0.000   0.000   0.000   0.000   0.000  -1.939  -0.000   0.000   0.000   0.000   2.247  -0.000   0.000   0.000   0.000
 -0.000   0.000   0.000  -0.000   0.000   0.000   0.000  -2.415  -0.000   0.000   0.000  -0.000   2.986   0.000   0.000   0.000
  0.000   0.000  -0.000   0.000  -0.000  -0.000   0.000   0.000  -2.307  -0.000  -0.094   0.000   0.000   2.337   0.000   0.019
  0.000   0.000   0.000   0.000   0.000  -0.000   0.000   0.000  -0.000  -1.931   0.000   0.000   0.000   0.000   2.241   0.000
 -0.000   0.000   0.000  -0.000   0.000   0.000   0.000   0.000  -0.094   0.000  -2.192   0.000   0.000   0.019   0.000   2.310
  0.000   0.000   0.000   0.000  -0.000   0.000   0.000   0.000  -0.132   0.000   0.225   0.000   0.000   0.103   0.000  -0.176
 -0.000  -0.000  -0.000   0.000   0.000   0.000  -0.000   0.000   0.009  -0.000  -0.015   0.000   0.000  -0.006   0.000   0.010
 total augmentation occupancy for first ion, spin component:           2
 -0.002  -0.000   0.000  -0.008  -0.000   0.000   0.000   0.000   0.000   0.000   0.000   0.000  -0.000   0.000   0.000  -0.000
 -0.000  -0.002   0.000  -0.000  -0.008   0.000   0.000  -0.000   0.000   0.000   0.000   0.000   0.000  -0.000   0.000  -0.000
  0.000   0.000  -0.002   0.000   0.000  -0.009   0.000   0.000  -0.000   0.000   0.000   0.000   0.000  -0.000  -0.000   0.000
 -0.008  -0.000   0.000  -0.004   0.000   0.000   0.000   0.000   0.000   0.000   0.000   0.000   0.000  -0.000   0.000   0.000
 -0.000  -0.008   0.000   0.000  -0.004   0.000   0.000   0.000   0.000   0.000  -0.000   0.000   0.000  -0.000   0.000   0.000
  0.000   0.000  -0.009   0.000   0.000  -0.009   0.000  -0.000  -0.000   0.000   0.000   0.000  -0.000   0.000  -0.000  -0.000
  0.000   0.000   0.000   0.000   0.000   0.000   2.252  -0.000   0.000   0.000  -0.000  -1.001   0.000   0.000   0.000   0.000
  0.000  -0.000   0.000   0.000   0.000  -0.000  -0.000   1.802   0.000   0.000  -0.000  -0.000  -0.621   0.000   0.000   0.000
  0.000   0.000  -0.000   0.000   0.000  -0.000   0.000   0.000   2.604   0.000   0.093   0.000  -0.000  -1.105   0.000  -0.097
  0.000   0.000   0.000   0.000   0.000   0.000   0.000   0.000   0.000   2.240   0.000   0.000   0.000   0.000  -0.993  -0.000
  0.000   0.000   0.000   0.000  -0.000   0.000  -0.000  -0.000   0.093   0.000   2.487   0.000  -0.000  -0.097   0.000  -0.987
  0.000   0.000   0.000   0.000   0.000   0.000  -1.001  -0.000   0.000   0.000   0.000   0.236   0.000   0.000   0.000   0.000
 -0.000   0.000   0.000   0.000   0.000  -0.000   0.000  -0.621  -0.000   0.000  -0.000   0.000  -0.074   0.000  -0.000  -0.000
  0.000  -0.000  -0.000  -0.000  -0.000   0.000   0.000   0.000  -1.105   0.000  -0.097   0.000   0.000   0.313  -0.000   0.107
  0.000   0.000  -0.000   0.000   0.000  -0.000   0.000   0.000   0.000  -0.993   0.000   0.000  -0.000  -0.000   0.231  -0.000
 -0.000  -0.000   0.000   0.000   0.000  -0.000   0.000   0.000  -0.097  -0.000  -0.987   0.000  -0.000   0.107  -0.000   0.185
  0.000  -0.000   0.000   0.000  -0.000   0.000   0.000   0.000  -0.029   0.000   0.046  -0.000  -0.000   0.030   0.000  -0.049
  0.000   0.000   0.000   0.000  -0.000  -0.000  -0.000   0.000   0.003   0.000  -0.006   0.000  -0.000  -0.001   0.000   0.002


------------------------ aborting loop because EDIFF is reached ----------------------------------------





 total charge

# of ion       s       p       d       tot
------------------------------------------
    1        0.382   6.398   6.113  12.893
    2        0.382   6.397   6.113  12.892
    3        0.382   6.398   6.113  12.893
    4        0.382   6.398   6.113  12.893
    5        0.382   6.397   6.113  12.892
    6        0.382   6.397   6.113  12.892
    7        0.382   6.398   6.113  12.893
    8        0.382   6.397   6.113  12.892
    9        0.382   6.398   6.113  12.893
   10        0.826   0.854   8.084   9.763
   11        0.826   0.853   8.084   9.762
   12        0.826   0.853   8.084   9.762
--------------------------------------------------
tot          5.914  60.136  79.267 145.318



 magnetization (x)

# of ion       s       p       d       tot
------------------------------------------
    1       -0.004  -0.014   2.389   2.372
    2       -0.003  -0.014   2.392   2.374
    3       -0.004  -0.014   2.389   2.372
    4       -0.004  -0.014   2.389   2.371
    5       -0.004  -0.014   2.392   2.374
    6       -0.004  -0.014   2.392   2.374
    7       -0.004  -0.014   2.389   2.372
    8       -0.003  -0.014   2.392   2.374
    9       -0.004  -0.014   2.389   2.372
   10       -0.037  -0.097   0.342   0.207
   11       -0.037  -0.097   0.342   0.208
   12       -0.037  -0.097   0.342   0.208
--------------------------------------------------
tot         -0.143  -0.418  22.539  21.978
 
    FORLOC:  cpu time      0.0009: real time      0.0009
    FORNL :  cpu time      0.6469: real time      0.6504
    STRESS:  cpu time      3.8959: real time      3.9286
    FORCOR:  cpu time      0.0196: real time      0.0197
    OFIELD:  cpu time      0.0001: real time      0.0001

  FORCE on cell =-STRESS in cart. coord.  units (eV):
  Direction    XX          YY          ZZ          XY          YZ          ZX
  --------------------------------------------------------------------------------------
  Alpha Z  1224.38942  1224.38942  1224.38942
  Ewald   -6267.21615 -6267.21615 -6267.29464     0.00000     0.00000    -0.00000
  Hartree  1769.00420  1769.00420  1768.84260    -0.00000    -0.00000    -0.00000
  E(xc)    -947.88906  -947.88906  -947.89072    -0.00000     0.00000    -0.00000
  Local    1288.21469  1288.21469  1288.58148    -0.00000    -0.00000    -0.00000
  n-local  -190.40059  -203.13985  -196.90586    16.71197    -0.06168    -0.21371
  augment  1434.50697  1434.50697  1434.48730     0.00000    -0.00000     0.00000
  Kinetic  1723.85394  1710.32268  1717.09136     1.48006     0.32459     0.03802
  Fock        0.00000     0.00000     0.00000     0.00000     0.00000     0.00000
  -------------------------------------------------------------------------------------
  Total      21.32817    21.32817    21.30095     0.00000     0.00000    -0.00000
  in kB     245.83822   245.83822   245.52441     0.00000     0.00000    -0.00000
  external pressure =      245.73 kB  Pullay stress =        0.00 kB


 VOLUME and BASIS-vectors are now :
 -----------------------------------------------------------------------------
  energy-cutoff  :      520.00
  volume of cell :      139.00
      direct lattice vectors                 reciprocal lattice vectors
     3.591608410  0.000000000  0.000000000     0.278426790 -0.000000000  0.000000000
     0.000000000  3.591608410  0.000000000     0.000000000  0.278426790 -0.000000000
    -0.000000000  0.000000000 10.775485346    -0.000000000 -0.000000000  0.092803244

  length of vectors
     3.591608410  3.591608410 10.775485346     0.278426790  0.278426790  0.092803244


 FORCES acting on ions:
    Electron-Ion                     Ewald-Force                    Non-Local-Force
 -----------------------------------------------------------------------------------------------
   0.481E-13 0.848E-12 -.161E+01   0.326E-13 0.168E-13 0.162E+01   0.121E-20 -.216E-20 0.173E-03
   0.485E-13 0.102E-11 -.263E-12   -.493E-15 -.155E-13 -.114E-12   0.135E-24 -.321E-24 0.917E-23
   -.270E-13 -.343E-12 0.161E+01   -.154E-13 -.409E-15 -.162E+01   0.223E-20 -.288E-20 -.173E-03
   0.104E-11 0.774E-11 0.550E-11   0.207E-13 0.557E-14 -.227E-12   -.927E-24 -.388E-24 0.407E-24
   0.104E-11 -.439E-11 -.187E+01   -.307E-13 -.122E-13 0.187E+01   0.491E-21 0.458E-21 0.304E-02
   0.105E-11 -.448E-11 0.187E+01   0.880E-13 0.397E-14 -.187E+01   0.342E-22 0.328E-21 -.304E-02
   0.102E-11 -.142E-13 -.161E+01   0.207E-15 0.159E-13 0.162E+01   0.120E-20 0.604E-21 0.173E-03
   0.102E-11 -.898E-14 0.238E-11   -.273E-13 0.154E-13 0.000E+00   -.331E-24 -.947E-25 0.867E-23
   0.103E-11 -.804E-14 0.161E+01   -.120E-13 0.279E-14 -.162E+01   -.785E-21 -.659E-21 -.173E-03
   -.541E-14 -.342E-13 0.309E-12   -.164E-13 -.441E-15 0.227E-12   -.303E-24 -.475E-24 0.211E-24
   -.388E-14 -.351E-13 -.106E+01   0.290E-13 0.781E-14 0.106E+01   -.307E-20 0.150E-21 0.182E-02
   -.154E-13 -.352E-13 0.106E+01   -.534E-13 0.180E-13 -.106E+01   0.632E-20 0.945E-22 -.182E-02
 -----------------------------------------------------------------------------------------------
   0.631E-11 0.266E-12 -.480E-11   0.147E-13 0.577E-13 0.309E-12   0.764E-20 -.406E-20 0.000E+00
 
 
 POSITION                                       TOTAL-FORCE (eV/Angst)
 -----------------------------------------------------------------------------------
     -0.00000      1.79580      1.79530        -0.000000      0.000000      0.008509
     -0.00000      1.79580      5.38774        -0.000000      0.000000     -0.000000
     -0.00000      1.79580      8.98018         0.000000     -0.000000     -0.008509
      1.79580      1.79580      0.00000        -0.000000     -0.000000     -0.000000
      1.79580      1.79580      3.59094        -0.000000      0.000000      0.006624
      1.79580      1.79580      7.18455         0.000000     -0.000000     -0.006624
      1.79580      0.00000      1.79530        -0.000000      0.000000      0.008509
      1.79580      0.00000      5.38774         0.000000     -0.000000     -0.000000
      1.79580      0.00000      8.98018         0.000000     -0.000000     -0.008509
      0.00000      0.00000      0.00000        -0.000000     -0.000000     -0.000000
     -0.00000      0.00000      3.59149        -0.000000      0.000000      0.004883
     -0.00000      0.00000      7.18399         0.000000     -0.000000     -0.004883
 -----------------------------------------------------------------------------------
    total drift:                                0.000000      0.000000     -0.000000


--------------------------------------------------------------------------------------------------------



  FREE ENERGIE OF THE ION-ELECTRON SYSTEM (eV)
  ---------------------------------------------------
  free  energy   TOTEN  =       -92.25065262 eV

  energy  without entropy=      -92.25364105  energy(sigma->0) =      -92.25164876
 
 d Force = 0.1831923E-05[-0.247E-05, 0.613E-05]  d Energy = 0.1276894E-06 0.170E-05
 d Force =-0.5101714E-03[-0.528E-03,-0.492E-03]  d Ewald  =-0.5096090E-03-0.562E-06


--------------------------------------------------------------------------------------------------------


    POTLOK:  cpu time      0.0304: real time      0.0306


--------------------------------------------------------------------------------------------------------




--------------------------------------------------------------------------------------------------------


  
 reached required accuracy - stopping structural energy minimisation
     LOOP+:  cpu time     28.4002: real time     28.7435
    4ORBIT:  cpu time      0.0000: real time      0.0000



 total charge

# of ion       s       p       d       tot
------------------------------------------
    1        0.382   6.398   6.113  12.893
    2        0.382   6.397   6.113  12.892
    3        0.382   6.398   6.113  12.893
    4        0.382   6.398   6.113  12.893
    5        0.382   6.397   6.113  12.892
    6        0.382   6.397   6.113  12.892
    7        0.382   6.398   6.113  12.893
    8        0.382   6.397   6.113  12.892
    9        0.382   6.398   6.113  12.893
   10        0.826   0.854   8.084   9.763
   11        0.826   0.853   8.084   9.762
   12        0.826   0.853   8.084   9.762
--------------------------------------------------
tot          5.914  60.136  79.267 145.318



 magnetization (x)

# of ion       s       p       d       tot
------------------------------------------
    1       -0.004  -0.014   2.389   2.372
    2       -0.003  -0.014   2.392   2.374
    3       -0.004  -0.014   2.389   2.372
    4       -0.004  -0.014   2.389   2.371
    5       -0.004  -0.014   2.392   2.374
    6       -0.004  -0.014   2.392   2.374
    7       -0.004  -0.014   2.389   2.372
    8       -0.003  -0.014   2.392   2.374
    9       -0.004  -0.014   2.389   2.372
   10       -0.037  -0.097   0.342   0.207
   11       -0.037  -0.097   0.342   0.208
   12       -0.037  -0.097   0.342   0.208
--------------------------------------------------
tot         -0.143  -0.418  22.539  21.978
 

 total amount of memory used by VASP MPI-rank0   258808. kBytes
=======================================================================

   base      :      30000. kBytes
   nonl-proj :      92073. kBytes
   fftplans  :        848. kBytes
   grid      :       6490. kBytes
   one-center:        373. kBytes
   wavefun   :     129024. kBytes
 
  
  
 General timing and accounting informations for this job:
 ========================================================
  
                  Total CPU time used (sec):      406.826
                            User time (sec):      399.588
                          System time (sec):        7.238
                         Elapsed time (sec):      419.380
  
                   Maximum memory used (kb):     1195768.
                   Average memory used (kb):          N/A
  
                          Minor page faults:       211829
                          Major page faults:          136
                 Voluntary context switches:        11090
