 vasp.6.4.3 19Mar24 (build Mar 26 2024 14:05:37) complex                        
  
 executed on             LinuxIFC date 2024.12.16  09:22:33
 running  128 mpi-ranks, on    1 nodes
 distrk:  each k-point on   32 cores,    4 groups
 distr:  one band on NCORE=   1 cores,   32 groups


--------------------------------------------------------------------------------------------------------


 INCAR:
   ALGO = Normal
   EDIFF = 1e-06
   EDIFFG = -0.01
   ENCUT = 520
   GGA = Pe
   IBRION = -1
   ISIF = 4
   ISMEAR = -5
   ISPIN = 2
   KPAR = 4
   LCHARG = True
   LORBIT = 11
   LREAL = False
   LWAVE = False
   MAGMOM = 1*2.372 1*2.374 1*2.372 1*2.371 2*2.374 1*2.372 1*2.374 1*2.372 1*0.207 2*0.208
   NELM = 200
   NSW = 0
   PREC = Accurate
   SIGMA = 0.2

 POTCAR:    PAW_PBE Fe_pv 02Aug2007               
 POTCAR:    PAW_PBE Pt 04Feb2005                  
 -----------------------------------------------------------------------------
|                                                                             |
|           W    W    AA    RRRRR   N    N  II  N    N   GGGG   !!!           |
|           W    W   A  A   R    R  NN   N  II  NN   N  G    G  !!!           |
|           W    W  A    A  R    R  N N  N  II  N N  N  G       !!!           |
|           W WW W  AAAAAA  RRRRR   N  N N  II  N  N N  G  GGG   !            |
|           WW  WW  A    A  R   R   N   NN  II  N   NN  G    G                |
|           W    W  A    A  R    R  N    N  II  N    N   GGGG   !!!           |
|                                                                             |
|     For optimal performance we recommend to set                             |
|       NCORE = 2 up to number-of-cores-per-socket                            |
|     NCORE specifies how many cores store one orbital (NPAR=cpu/NCORE).      |
|     This setting can greatly improve the performance of VASP for DFT.       |
|     The default, NCORE=1 might be grossly inefficient on modern             |
|     multi-core architectures or massively parallel machines. Do your        |
|     own testing! More info at https://www.vasp.at/wiki/index.php/NCORE      |
|     Unfortunately you need to use the default for GW and RPA                |
|     calculations (for HF NCORE is supported but not extensively tested      |
|     yet).                                                                   |
|                                                                             |
 -----------------------------------------------------------------------------

 POTCAR:    PAW_PBE Fe_pv 02Aug2007               
   SHA256 =  5d22e414b1f82158bf2c7ecb8b97b28fd0923e48cadc1c3bf74d524558f5dd32 Fe_pv/POTCAR          
   COPYR  = (c) Copyright 02Aug2007 Georg Kresse                                                    
   COPYR  = This file is part of the software VASP. Any use, copying, and all other rights are regul
   COPYR  = If you do not have a valid VASP license, you may not use, copy or distribute this file. 
   VRHFIN =Fe:  3pd7s1                                                                              
   LEXCH  = PE                                                                                      
   EATOM  =  2457.4239 eV,  180.6156 Ry                                                             
                                                                                                    
   TITEL  = PAW_PBE Fe_pv 02Aug2007                                                                 
   LULTRA =        F    use ultrasoft PP ?                                                          
   IUNSCR =        1    unscreen: 0-lin 1-nonlin 2-no                                               
   RPACOR =    1.750    partial core radius                                                         
   POMASS =   55.847; ZVAL   =   14.000    mass and valenz                                          
   RCORE  =    2.200    outmost cutoff radius                                                       
   RWIGS  =    2.200; RWIGS  =    1.164    wigner-seitz radius (au A)                               
   ENMAX  =  293.238; ENMIN  =  219.928 eV                                                          
   ICORE  =        3    local potential                                                             
   LCOR   =        T    correct aug charges                                                         
   LPAW   =        T    paw PP                                                                      
   EAUG   =  578.342                                                                                
   DEXC   =    0.000                                                                                
   RMAX   =    2.249    core radius for proj-oper                                                   
   RAUG   =    1.300    factor for augmentation sphere                                              
   RDEP   =    2.296    radius for radial grids                                                     
   RDEPT  =    1.766    core radius for aug-charge                                                  
                                                                                                    
   Atomic configuration                                                                             
    8 entries                                                                                       
     n  l   j            E        occ.                                                              
     1  0  0.50     -6993.8440   2.0000                                                             
     2  0  0.50      -814.6047   2.0000                                                             
     2  1  1.50      -693.3689   6.0000                                                             
     3  0  0.50       -89.4732   2.0000                                                             
     3  1  1.50       -55.6373   6.0000                                                             
     3  2  2.50        -3.8151   7.0000                                                             
     4  0  0.50        -4.2551   1.0000                                                             
     4  3  2.50        -1.3606   0.0000                                                             
   Description                                                                                      
     l       E           TYP  RCUT    TYP  RCUT                                                     
     1    -55.6372668     23  2.000                                                                 
     1     -5.4423304     23  2.000                                                                 
     2     -3.8151096     23  2.200                                                                 
     2     -5.1756922     23  2.200                                                                 
     0     -4.2550951     23  2.200                                                                 
     0     27.2116520     23  2.200                                                                 
     3     -1.3605826     23  2.200                                                                 
  local pseudopotential read in
  partial core-charges read in
  partial kinetic energy density read in
  atomic valenz-charges read in
  non local Contribution for L=           1  read in
    real space projection operators read in
  non local Contribution for L=           1  read in
    real space projection operators read in
  non local Contribution for L=           2  read in
    real space projection operators read in
  non local Contribution for L=           2  read in
    real space projection operators read in
  non local Contribution for L=           0  read in
    real space projection operators read in
  non local Contribution for L=           0  read in
    real space projection operators read in
    PAW grid and wavefunctions read in
 
   number of l-projection  operators is LMAX  =           6
   number of lm-projection operators is LMMAX =          18
 
 POTCAR:    PAW_PBE Pt 04Feb2005                  
   SHA256 =  3ed90460adef76debcff1cfb73ee1349b515b1a3db03439735b44de3a8db7dc8 Pt/POTCAR             
   COPYR  = (c) Copyright 04Feb2005 Georg Kresse                                                    
   COPYR  = This file is part of the software VASP. Any use, copying, and all other rights are regul
   COPYR  = If you do not have a valid VASP license, you may not use, copy or distribute this file. 
   VRHFIN =Pt: s1d9                                                                                 
   LEXCH  = PE                                                                                      
   EATOM  =   729.1176 eV,   53.5886 Ry                                                             
                                                                                                    
   TITEL  = PAW_PBE Pt 04Feb2005                                                                    
   LULTRA =        F    use ultrasoft PP ?                                                          
   IUNSCR =        1    unscreen: 0-lin 1-nonlin 2-no                                               
   RPACOR =    2.330    partial core radius                                                         
   POMASS =  195.080; ZVAL   =   10.000    mass and valenz                                          
   RCORE  =    2.600    outmost cutoff radius                                                       
   RWIGS  =    2.750; RWIGS  =    1.455    wigner-seitz radius (au A)                               
   ENMAX  =  230.283; ENMIN  =  172.712 eV                                                          
   ICORE  =        3    local potential                                                             
   LCOR   =        T    correct aug charges                                                         
   LPAW   =        T    paw PP                                                                      
   EAUG   =  358.966                                                                                
   DEXC   =    0.000                                                                                
   RMAX   =    2.658    core radius for proj-oper                                                   
   RAUG   =    1.300    factor for augmentation sphere                                              
   RDEP   =    2.761    radius for radial grids                                                     
   RDEPT  =    2.203    core radius for aug-charge                                                  
                                                                                                    
   Atomic configuration                                                                             
   16 entries                                                                                       
     n  l   j            E        occ.                                                              
     1  0  0.50    -78401.1885   2.0000                                                             
     2  0  0.50    -13770.7750   2.0000                                                             
     2  1  1.50    -11931.0468   6.0000                                                             
     3  0  0.50     -3234.7234   2.0000                                                             
     3  1  1.50     -2699.2216   6.0000                                                             
     3  2  2.50     -2119.5714  10.0000                                                             
     4  0  0.50      -695.1528   2.0000                                                             
     4  1  1.50      -519.6034   6.0000                                                             
     4  2  2.50      -306.6786  10.0000                                                             
     4  3  3.50       -70.1041  14.0000                                                             
     5  0  0.50      -101.7747   2.0000                                                             
     5  1  1.50       -55.9873   6.0000                                                             
     5  2  2.50        -6.1423   9.0000                                                             
     6  0  0.50        -5.6573   1.0000                                                             
     6  1  1.50        -6.8029   0.0000                                                             
     5  3  2.50        -1.3606   0.0000                                                             
   Description                                                                                      
     l       E           TYP  RCUT    TYP  RCUT                                                     
     2     -6.1423404     23  2.500                                                                 
     2     -7.5029230     23  2.500                                                                 
     0     -5.6573207     23  2.500                                                                 
     0      0.7416693     23  2.500                                                                 
     1     -2.7211652     23  2.600                                                                 
     1     20.4087390     23  2.600                                                                 
     3     -1.3605826     23  2.500                                                                 
  local pseudopotential read in
  partial core-charges read in
  partial kinetic energy density read in
  atomic valenz-charges read in
  non local Contribution for L=           2  read in
    real space projection operators read in
  non local Contribution for L=           2  read in
    real space projection operators read in
  non local Contribution for L=           0  read in
    real space projection operators read in
  non local Contribution for L=           0  read in
    real space projection operators read in
  non local Contribution for L=           1  read in
    real space projection operators read in
  non local Contribution for L=           1  read in
    real space projection operators read in
    PAW grid and wavefunctions read in
 
   number of l-projection  operators is LMAX  =           6
   number of lm-projection operators is LMMAX =          18
 
  PAW_PBE Fe_pv 02Aug2007               :
 energy of atom  1       EATOM=-2457.4239
 kinetic energy error for atom=    0.0062 (will be added to EATOM!!)
  PAW_PBE Pt 04Feb2005                  :
 energy of atom  2       EATOM= -729.1176
 kinetic energy error for atom=    0.0032 (will be added to EATOM!!)
 
 
 POSCAR: Fe9 Pt3
  positions in direct lattice
  velocities in cartesian coordinates


 exchange-correlation table for PE
   RHO(1)=    0.500       N(1)  =     2000
   RHO(2)=  100.500       N(2)  =     4000
 


--------------------------------------------------------------------------------------------------------


 ion  position               nearest neighbor table
   1  0.000  0.500  0.167-   4 2.54  10 2.54  10 2.54   4 2.54   5 2.54   5 2.54   7 2.54   7 2.54
                             7 2.54   7 2.54  11 2.54  11 2.54
   2  0.000  0.500  0.500-   8 2.54   8 2.54   8 2.54   8 2.54  11 2.54  12 2.54  12 2.54  11 2.54
                             5 2.54   6 2.54   5 2.54   6 2.54
   3  0.000  0.500  0.833-   4 2.54  10 2.54  10 2.54   4 2.54   6 2.54   6 2.54   9 2.54   9 2.54
                             9 2.54   9 2.54  12 2.54  12 2.54
   4  0.500  0.500  0.000-   1 2.54   3 2.54   7 2.54   9 2.54   7 2.54   9 2.54   1 2.54   3 2.54
                            10 2.54  10 2.54  10 2.54  10 2.54
   5  0.500  0.500  0.333-   1 2.54   7 2.54   7 2.54   1 2.54  11 2.54  11 2.54  11 2.54  11 2.54
                             8 2.54   2 2.54   8 2.54   2 2.54
   6  0.500  0.500  0.667-   3 2.54   9 2.54   9 2.54   3 2.54  12 2.54  12 2.54  12 2.54  12 2.54
                             2 2.54   8 2.54   2 2.54   8 2.54
   7  0.500  0.000  0.167-   4 2.54  10 2.54   4 2.54  10 2.54   5 2.54   5 2.54   1 2.54   1 2.54
                             1 2.54   1 2.54  11 2.54  11 2.54
   8  0.500  0.000  0.500-   2 2.54   2 2.54   2 2.54   2 2.54  12 2.54  11 2.54  12 2.54  11 2.54
                             6 2.54   5 2.54   5 2.54   6 2.54
   9  0.500  0.000  0.833-   4 2.54  10 2.54   4 2.54  10 2.54   6 2.54   6 2.54   3 2.54   3 2.54
                             3 2.54   3 2.54  12 2.54  12 2.54
  10  0.000  0.000  0.000-   1 2.54   3 2.54   7 2.54   9 2.54   1 2.54   3 2.54   7 2.54   9 2.54
                             4 2.54   4 2.54   4 2.54   4 2.54
  11  0.000  0.000  0.333-   5 2.54   5 2.54   5 2.54   5 2.54   1 2.54   7 2.54   7 2.54   1 2.54
                             2 2.54   2 2.54   8 2.54   8 2.54
  12  0.000  0.000  0.667-   6 2.54   6 2.54   6 2.54   6 2.54   3 2.54   9 2.54   9 2.54   3 2.54
                             2 2.54   8 2.54   8 2.54   2 2.54
 
  LATTYP: Found a simple tetragonal cell.
 ALAT       =     3.5916084099
 C/A-ratio  =     3.0001837942
  
  Lattice vectors:
  
 A1 = (   3.5916084099,   0.0000000000,   0.0000000000)
 A2 = (   0.0000000000,   3.5916084099,   0.0000000000)
 A3 = (   0.0000000000,   0.0000000000,  10.7754853464)


Analysis of symmetry for initial positions (statically):
=====================================================================
 Subroutine PRICEL returns:
 Original cell was already a primitive cell.
 

 Routine SETGRP: Setting up the symmetry group for a 
 simple tetragonal supercell.


 Subroutine GETGRP returns: Found 16 space group operations
 (whereof 16 operations were pure point group operations)
 out of a pool of 16 trial point group operations.


The static configuration has the point symmetry D_4h.


Analysis of symmetry for dynamics (positions and initial velocities):
=====================================================================
 Subroutine PRICEL returns:
 Original cell was already a primitive cell.
 

 Routine SETGRP: Setting up the symmetry group for a 
 simple tetragonal supercell.


 Subroutine GETGRP returns: Found 16 space group operations
 (whereof 16 operations were pure point group operations)
 out of a pool of 16 trial point group operations.


The dynamic configuration has the point symmetry D_4h.


Analysis of structural, dynamic, and magnetic symmetry:
=====================================================================
 Subroutine PRICEL returns:
 Original cell was already a primitive cell.
 

 Routine SETGRP: Setting up the symmetry group for a 
 simple tetragonal supercell.


 Subroutine GETGRP returns: Found 16 space group operations
 (whereof 16 operations were pure point group operations)
 out of a pool of 16 trial point group operations.


The overall configuration has the point symmetry D_4h.


 Subroutine INISYM returns: Found 16 space group operations
 (whereof 16 operations are pure point group operations),
 and found     1 'primitive' translations


----------------------------------------------------------------------------------------

                                     Primitive cell                                     

  volume of cell :     139.0000

  direct lattice vectors                    reciprocal lattice vectors
     3.591608410  0.000000000  0.000000000     0.278426790  0.000000000  0.000000000
     0.000000000  3.591608410  0.000000000     0.000000000  0.278426790  0.000000000
     0.000000000  0.000000000 10.775485346     0.000000000  0.000000000  0.092803244

  length of vectors
     3.591608410  3.591608410 10.775485346     0.278426790  0.278426790  0.092803244

  position of ions in fractional coordinates (direct lattice)
     0.000000000  0.500000000  0.166610042
     0.000000000  0.500000000  0.500000000
     0.000000000  0.500000000  0.833389958
     0.500000000  0.500000000  0.000000000
     0.500000000  0.500000000  0.333250763
     0.500000000  0.500000000  0.666749237
     0.500000000  0.000000000  0.166610042
     0.500000000  0.000000000  0.500000000
     0.500000000  0.000000000  0.833389958
     0.000000000  0.000000000  0.000000000
     0.000000000  0.000000000  0.333302363
     0.000000000  0.000000000  0.666697637

  ion indices of the primitive-cell ions
   primitive index   ion index
                 1           1
                 2           2
                 3           3
                 4           4
                 5           5
                 6           6
                 7           7
                 8           8
                 9           9
                10          10
                11          11
                12          12

----------------------------------------------------------------------------------------

 
 
 KPOINTS: pymatgen with grid density = 8800 / numb

Automatic generation of k-mesh.
 Grid dimensions read from file:
 generate k-points for:   13   13    4

 Generating k-lattice:

  Cartesian coordinates                     Fractional coordinates (reciprocal lattice)
     0.021417445  0.000000000  0.000000000     0.076923077  0.000000000  0.000000000
     0.000000000  0.021417445  0.000000000     0.000000000  0.076923077  0.000000000
     0.000000000  0.000000000  0.023200811     0.000000000  0.000000000  0.250000000

  Length of vectors
     0.021417445  0.021417445  0.023200811

  Shift w.r.t. Gamma in fractional coordinates (k-lattice)
     0.000000000  0.000000000  0.000000000

 TETIRR: Found   1010 inequivalent tetrahedra from     4056
 
 Subroutine IBZKPT returns following result:
 ===========================================
 
 Found     84 irreducible k-points:
 
 Following reciprocal coordinates:
            Coordinates               Weight
  0.000000  0.000000  0.000000      1.000000
  0.076923  0.000000  0.000000      4.000000
  0.153846  0.000000  0.000000      4.000000
  0.230769  0.000000  0.000000      4.000000
  0.307692  0.000000  0.000000      4.000000
  0.384615  0.000000  0.000000      4.000000
  0.461538  0.000000  0.000000      4.000000
  0.076923  0.076923  0.000000      4.000000
  0.153846  0.076923  0.000000      8.000000
  0.230769  0.076923  0.000000      8.000000
  0.307692  0.076923  0.000000      8.000000
  0.384615  0.076923  0.000000      8.000000
  0.461538  0.076923  0.000000      8.000000
  0.153846  0.153846  0.000000      4.000000
  0.230769  0.153846  0.000000      8.000000
  0.307692  0.153846  0.000000      8.000000
  0.384615  0.153846  0.000000      8.000000
  0.461538  0.153846  0.000000      8.000000
  0.230769  0.230769  0.000000      4.000000
  0.307692  0.230769  0.000000      8.000000
  0.384615  0.230769  0.000000      8.000000
  0.461538  0.230769  0.000000      8.000000
  0.307692  0.307692  0.000000      4.000000
  0.384615  0.307692  0.000000      8.000000
  0.461538  0.307692  0.000000      8.000000
  0.384615  0.384615  0.000000      4.000000
  0.461538  0.384615  0.000000      8.000000
  0.461538  0.461538  0.000000      4.000000
  0.000000  0.000000  0.250000      2.000000
  0.076923  0.000000  0.250000      8.000000
  0.153846  0.000000  0.250000      8.000000
  0.230769  0.000000  0.250000      8.000000
  0.307692  0.000000  0.250000      8.000000
  0.384615  0.000000  0.250000      8.000000
  0.461538  0.000000  0.250000      8.000000
  0.076923  0.076923  0.250000      8.000000
  0.153846  0.076923  0.250000     16.000000
  0.230769  0.076923  0.250000     16.000000
  0.307692  0.076923  0.250000     16.000000
  0.384615  0.076923  0.250000     16.000000
  0.461538  0.076923  0.250000     16.000000
  0.153846  0.153846  0.250000      8.000000
  0.230769  0.153846  0.250000     16.000000
  0.307692  0.153846  0.250000     16.000000
  0.384615  0.153846  0.250000     16.000000
  0.461538  0.153846  0.250000     16.000000
  0.230769  0.230769  0.250000      8.000000
  0.307692  0.230769  0.250000     16.000000
  0.384615  0.230769  0.250000     16.000000
  0.461538  0.230769  0.250000     16.000000
  0.307692  0.307692  0.250000      8.000000
  0.384615  0.307692  0.250000     16.000000
  0.461538  0.307692  0.250000     16.000000
  0.384615  0.384615  0.250000      8.000000
  0.461538  0.384615  0.250000     16.000000
  0.461538  0.461538  0.250000      8.000000
  0.000000  0.000000  0.500000      1.000000
  0.076923  0.000000  0.500000      4.000000
  0.153846  0.000000  0.500000      4.000000
  0.230769  0.000000  0.500000      4.000000
  0.307692  0.000000  0.500000      4.000000
  0.384615  0.000000  0.500000      4.000000
  0.461538  0.000000  0.500000      4.000000
  0.076923  0.076923  0.500000      4.000000
  0.153846  0.076923  0.500000      8.000000
  0.230769  0.076923  0.500000      8.000000
  0.307692  0.076923  0.500000      8.000000
  0.384615  0.076923  0.500000      8.000000
  0.461538  0.076923  0.500000      8.000000
  0.153846  0.153846  0.500000      4.000000
  0.230769  0.153846  0.500000      8.000000
  0.307692  0.153846  0.500000      8.000000
  0.384615  0.153846  0.500000      8.000000
  0.461538  0.153846  0.500000      8.000000
  0.230769  0.230769  0.500000      4.000000
  0.307692  0.230769  0.500000      8.000000
  0.384615  0.230769  0.500000      8.000000
  0.461538  0.230769  0.500000      8.000000
  0.307692  0.307692  0.500000      4.000000
  0.384615  0.307692  0.500000      8.000000
  0.461538  0.307692  0.500000      8.000000
  0.384615  0.384615  0.500000      4.000000
  0.461538  0.384615  0.500000      8.000000
  0.461538  0.461538  0.500000      4.000000
 
 Following cartesian coordinates:
            Coordinates               Weight
  0.000000  0.000000  0.000000      1.000000
  0.021417  0.000000  0.000000      4.000000
  0.042835  0.000000  0.000000      4.000000
  0.064252  0.000000  0.000000      4.000000
  0.085670  0.000000  0.000000      4.000000
  0.107087  0.000000  0.000000      4.000000
  0.128505  0.000000  0.000000      4.000000
  0.021417  0.021417  0.000000      4.000000
  0.042835  0.021417  0.000000      8.000000
  0.064252  0.021417  0.000000      8.000000
  0.085670  0.021417  0.000000      8.000000
  0.107087  0.021417  0.000000      8.000000
  0.128505  0.021417  0.000000      8.000000
  0.042835  0.042835  0.000000      4.000000
  0.064252  0.042835  0.000000      8.000000
  0.085670  0.042835  0.000000      8.000000
  0.107087  0.042835  0.000000      8.000000
  0.128505  0.042835  0.000000      8.000000
  0.064252  0.064252  0.000000      4.000000
  0.085670  0.064252  0.000000      8.000000
  0.107087  0.064252  0.000000      8.000000
  0.128505  0.064252  0.000000      8.000000
  0.085670  0.085670  0.000000      4.000000
  0.107087  0.085670  0.000000      8.000000
  0.128505  0.085670  0.000000      8.000000
  0.107087  0.107087  0.000000      4.000000
  0.128505  0.107087  0.000000      8.000000
  0.128505  0.128505  0.000000      4.000000
  0.000000  0.000000  0.023201      2.000000
  0.021417  0.000000  0.023201      8.000000
  0.042835  0.000000  0.023201      8.000000
  0.064252  0.000000  0.023201      8.000000
  0.085670  0.000000  0.023201      8.000000
  0.107087  0.000000  0.023201      8.000000
  0.128505  0.000000  0.023201      8.000000
  0.021417  0.021417  0.023201      8.000000
  0.042835  0.021417  0.023201     16.000000
  0.064252  0.021417  0.023201     16.000000
  0.085670  0.021417  0.023201     16.000000
  0.107087  0.021417  0.023201     16.000000
  0.128505  0.021417  0.023201     16.000000
  0.042835  0.042835  0.023201      8.000000
  0.064252  0.042835  0.023201     16.000000
  0.085670  0.042835  0.023201     16.000000
  0.107087  0.042835  0.023201     16.000000
  0.128505  0.042835  0.023201     16.000000
  0.064252  0.064252  0.023201      8.000000
  0.085670  0.064252  0.023201     16.000000
  0.107087  0.064252  0.023201     16.000000
  0.128505  0.064252  0.023201     16.000000
  0.085670  0.085670  0.023201      8.000000
  0.107087  0.085670  0.023201     16.000000
  0.128505  0.085670  0.023201     16.000000
  0.107087  0.107087  0.023201      8.000000
  0.128505  0.107087  0.023201     16.000000
  0.128505  0.128505  0.023201      8.000000
  0.000000  0.000000  0.046402      1.000000
  0.021417  0.000000  0.046402      4.000000
  0.042835  0.000000  0.046402      4.000000
  0.064252  0.000000  0.046402      4.000000
  0.085670  0.000000  0.046402      4.000000
  0.107087  0.000000  0.046402      4.000000
  0.128505  0.000000  0.046402      4.000000
  0.021417  0.021417  0.046402      4.000000
  0.042835  0.021417  0.046402      8.000000
  0.064252  0.021417  0.046402      8.000000
  0.085670  0.021417  0.046402      8.000000
  0.107087  0.021417  0.046402      8.000000
  0.128505  0.021417  0.046402      8.000000
  0.042835  0.042835  0.046402      4.000000
  0.064252  0.042835  0.046402      8.000000
  0.085670  0.042835  0.046402      8.000000
  0.107087  0.042835  0.046402      8.000000
  0.128505  0.042835  0.046402      8.000000
  0.064252  0.064252  0.046402      4.000000
  0.085670  0.064252  0.046402      8.000000
  0.107087  0.064252  0.046402      8.000000
  0.128505  0.064252  0.046402      8.000000
  0.085670  0.085670  0.046402      4.000000
  0.107087  0.085670  0.046402      8.000000
  0.128505  0.085670  0.046402      8.000000
  0.107087  0.107087  0.046402      4.000000
  0.128505  0.107087  0.046402      8.000000
  0.128505  0.128505  0.046402      4.000000
 


--------------------------------------------------------------------------------------------------------




 Dimension of arrays:
   k-points           NKPTS =     84   k-points in BZ     NKDIM =     84   number of bands    NBANDS=    128
   number of dos      NEDOS =    301   number of ions     NIONS =     12
   non local maximal  LDIM  =      6   non local SUM 2l+1 LMDIM =     18
   total plane-waves  NPLWV =  62720
   max r-space proj   IRMAX =      1   max aug-charges    IRDMAX=  27526
   dimension x,y,z NGX =    28 NGY =   28 NGZ =   80
   dimension x,y,z NGXF=    56 NGYF=   56 NGZF=  160
   support grid    NGXF=    56 NGYF=   56 NGZF=  160
   ions per type =               9   3
   NGX,Y,Z   is equivalent  to a cutoff of  12.96, 12.96, 12.34 a.u.
   NGXF,Y,Z  is equivalent  to a cutoff of  25.92, 25.92, 24.69 a.u.

 SYSTEM =  unknown system                          
 POSCAR =  Fe9 Pt3                                 

 Startparameter for this run:
   NWRITE =      2    write-flag & timer
   PREC   = accura    normal or accurate (medium, high low for compatibility)
   ISTART =      0    job   : 0-new  1-cont  2-samecut
   ICHARG =      2    charge: 1-file 2-atom 10-const
   ISPIN  =      2    spin polarized calculation?
   LNONCOLLINEAR =      F non collinear calculations
   LSORBIT =      F    spin-orbit coupling
   INIWAV =      1    electr: 0-lowe 1-rand  2-diag
   LASPH  =      F    aspherical Exc in radial PAW
 Electronic Relaxation 1
   ENCUT  =  520.0 eV  38.22 Ry    6.18 a.u.   6.68  6.68 20.04*2*pi/ulx,y,z
   ENINI  =  520.0     initial cutoff
   ENAUG  =  578.3 eV  augmentation charge cutoff
   NELM   =    200;   NELMIN=  2; NELMDL=  0     # of ELM steps 
   EDIFF  = 0.1E-05   stopping-criterion for ELM
   LREAL  =      F    real-space projection
   NLSPLINE    = F    spline interpolate recip. space projectors
   LCOMPAT=      F    compatible to vasp.4.4
   GGA_COMPAT  = T    GGA compatible to vasp.4.4-vasp.4.6
   LMAXPAW     = -100 max onsite density
   LMAXMIX     =    2 max onsite mixed and CHGCAR
   VOSKOWN=      0    Vosko Wilk Nusair interpolation
   ROPT   =    0.00000   0.00000
 Ionic relaxation
   EDIFFG = -.1E-01   stopping-criterion for IOM
   NSW    =      0    number of steps for IOM
   NBLOCK =      1;   KBLOCK =      1    inner block; outer block 
   IBRION =     -1    ionic relax: 0-MD 1-quasi-New 2-CG
   NFREE  =      0    steps in history (QN), initial steepest desc. (CG)
   ISIF   =      4    stress and relaxation
   IWAVPR =     10    prediction:  0-non 1-charg 2-wave 3-comb
   ISYM   =      2    0-nonsym 1-usesym 2-fastsym
   LCORR  =      T    Harris-Foulkes like correction to forces

   POTIM  = 0.5000    time-step for ionic-motion
   TEIN   =    0.0    initial temperature
   TEBEG  =    0.0;   TEEND  =   0.0 temperature during run
   SMASS  =  -3.00    Nose mass-parameter (am)
   estimated Nose-frequenzy (Omega)   =  0.10E-29 period in steps = 0.13E+47 mass=  -0.295E-27a.u.
   SCALEE = 1.0000    scale energy and forces
   NPACO  =    256;   APACO  = 10.0  distance and # of slots for P.C.
   PSTRESS=    0.0 pullay stress

  Mass of Ions in am
   POMASS =  55.85195.08
  Ionic Valenz
   ZVAL   =  14.00 10.00
  Atomic Wigner-Seitz radii
   RWIGS  =  -1.00 -1.00
  virtual crystal weights 
   VCA    =   1.00  1.00
   NELECT =     156.0000    total number of electrons
   NUPDOWN=      -1.0000    fix difference up-down

 DOS related values:
   EMIN   =  10.00;   EMAX   =-10.00  energy-range for DOS
   EFERMI =   0.00;   METHOD = LEGACY      
   ISMEAR =    -5;   SIGMA  =   0.20  broadening in eV -4-tet -1-fermi 0-gaus

 Electronic relaxation 2 (details)
   IALGO  =     38    algorithm
   LDIAG  =      T    sub-space diagonalisation (order eigenvalues)
   LSUBROT=      F    optimize rotation matrix (better conditioning)
   TURBO    =      0    0=normal 1=particle mesh
   IRESTART =      0    0=no restart 2=restart with 2 vectors
   NREBOOT  =      0    no. of reboots
   NMIN     =      0    reboot dimension
   EREF     =   0.00    reference energy to select bands
   IMIX   =      4    mixing-type and parameters
     AMIX     =   0.40;   BMIX     =  1.00
     AMIX_MAG =   1.60;   BMIX_MAG =  1.00
     AMIN     =   0.10
     WC   =   100.;   INIMIX=   1;  MIXPRE=   1;  MAXMIX= -45

 Intra band minimization:
   WEIMIN = 0.0000     energy-eigenvalue tresh-hold
   EBREAK =  0.20E-08  absolut break condition
   DEPER  =   0.30     relativ break condition  

   TIME   =   0.40     timestep for ELM

  volume/ion in A,a.u.               =      11.58        78.17
  Fermi-wavevector in a.u.,A,eV,Ry     =   1.701289  3.214970 39.380489  2.894384
  Thomas-Fermi vector in A             =   2.781269
 
 Write flags
   LWAVE        =      F    write WAVECAR
   LDOWNSAMPLE  =      F    k-point downsampling of WAVECAR
   LCHARG       =      T    write CHGCAR
   LVTOT        =      F    write LOCPOT, total local potential
   LVHAR        =      F    write LOCPOT, Hartree potential only
   WRT_POTENTIAL= false  ! write potential to hdf5 file
   LELF         =      F    write electronic localiz. function (ELF)
   LORBIT       =     11    0 simple, 1 ext, 2 COOP (PROOUT), +10 PAW based schemes


 Dipole corrections
   LMONO      =      F    monopole corrections only (constant potential shift)
   LDIPOL     =      F    correct potential (dipole corrections)
   IDIPOL     =      0    1-x, 2-y, 3-z, 4-all directions 
   EPSILON    =  1.0000000 bulk dielectric constant
   LVACPOTAV  =      F  vacuum potentials using an averaging scheme for the charge density
   VACPOTFLAT =  0.1000000 required flatness to determine vacuum potential
 Exchange correlation treatment:
   GGA     = PE    functional components
   XC_C    = 1    coefficients multiplying the functional components
   LIBXC   =     F    Libxc                    
   VOSKOWN =     0    Vosko Wilk Nusair interpolation
   LHFCALC =     F    Hartree Fock is set to
   LHFONE  =     F    Hartree Fock one center treatment
   AEXX    =    0.0000 exact exchange contribution

 Parameters of functionals:
   PE:
     No parameter
 
 Van der Waals corrections
   IVDW    =     0    specifies the selected vdW correction

 Linear response parameters
   LEPSILON=     F    determine dielectric tensor
   LRPA    =     F    only Hartree local field effects (RPA)
   LNABLA  =     F    use nabla operator in PAW spheres
   LVEL    =     F    velocity operator in full k-point grid
   CSHIFT  =0.1000    complex shift for real part using Kramers Kronig
   OMEGAMAX=  -1.0    maximum frequency
   DEG_THRESHOLD= 0.2000000E-02 threshold for treating states as degnerate
   RTIME   =   -0.100 relaxation time in fs
  (WPLASMAI=    0.000 imaginary part of plasma frequency in eV, 0.658/RTIME)
   DFIELD  = 0.0000000 0.0000000 0.0000000 field for delta impulse in time
 
  Optional k-point grid parameters
   LKPOINTS_OPT  =     F    use optional k-point grid
   KPOINTS_OPT_MODE=     1    mode for optional k-point grid
 
 Orbital magnetization related:
   ORBITALMAG=     F  switch on orbital magnetization
   LCHIMAG   =     F  perturbation theory with respect to B field
   DQ        =  0.001000  dq finite difference perturbation B field
   LLRAUG    =     F  two centre corrections for induced B field
   LBONE     =     F  B-component reconstruction in AE one-centre
   LVGVCALC  =     T  calculate vGv susceptibility
   LVGVAPPL  =     F  apply vGv susceptibility instead of pGv for G=0

 Random number generation:
   RANDOM_GENERATOR = DEFAULT
   PCG_SEED         = not used


--------------------------------------------------------------------------------------------------------


 Static calculation
 charge density and potential will be updated during run
 spin polarized calculation
 Variant of blocked Davidson
 Davidson routine will perform the subspace rotation
 perform sub-space diagonalisation
    after iterative eigenvector-optimisation
 modified Broyden-mixing scheme, WC =      100.0
 initial mixing is a Kerker type mixing with AMIX =  0.4000 and BMIX =      1.0000
 Hartree-type preconditioning will be used
 using additional bands           50
 reciprocal scheme for non local part
 use partial core corrections
 calculate Harris-corrections to forces 
   (improved forces if not selfconsistent)
 use gradient corrections 
 use of overlap-Matrix (Vanderbilt PP)
 Fermi weights with tetrahedron method with Bloechl corrections


--------------------------------------------------------------------------------------------------------


  energy-cutoff  :      520.00
  volume of cell :      139.00
      direct lattice vectors                 reciprocal lattice vectors
     3.591608410  0.000000000  0.000000000     0.278426790  0.000000000  0.000000000
     0.000000000  3.591608410  0.000000000     0.000000000  0.278426790  0.000000000
     0.000000000  0.000000000 10.775485346     0.000000000  0.000000000  0.092803244

  length of vectors
     3.591608410  3.591608410 10.775485346     0.278426790  0.278426790  0.092803244


 
 k-points in units of 2pi/SCALE and weight: pymatgen with grid density = 8800 / numb
   0.00000000  0.00000000  0.00000000       0.001
   0.02141745  0.00000000  0.00000000       0.006
   0.04283489  0.00000000  0.00000000       0.006
   0.06425234  0.00000000  0.00000000       0.006
   0.08566978  0.00000000  0.00000000       0.006
   0.10708723  0.00000000  0.00000000       0.006
   0.12850467  0.00000000  0.00000000       0.006
   0.02141745  0.02141745  0.00000000       0.006
   0.04283489  0.02141745  0.00000000       0.012
   0.06425234  0.02141745  0.00000000       0.012
   0.08566978  0.02141745  0.00000000       0.012
   0.10708723  0.02141745  0.00000000       0.012
   0.12850467  0.02141745  0.00000000       0.012
   0.04283489  0.04283489  0.00000000       0.006
   0.06425234  0.04283489  0.00000000       0.012
   0.08566978  0.04283489  0.00000000       0.012
   0.10708723  0.04283489  0.00000000       0.012
   0.12850467  0.04283489  0.00000000       0.012
   0.06425234  0.06425234  0.00000000       0.006
   0.08566978  0.06425234  0.00000000       0.012
   0.10708723  0.06425234  0.00000000       0.012
   0.12850467  0.06425234  0.00000000       0.012
   0.08566978  0.08566978  0.00000000       0.006
   0.10708723  0.08566978  0.00000000       0.012
   0.12850467  0.08566978  0.00000000       0.012
   0.10708723  0.10708723  0.00000000       0.006
   0.12850467  0.10708723  0.00000000       0.012
   0.12850467  0.12850467  0.00000000       0.006
   0.00000000  0.00000000  0.02320081       0.003
   0.02141745  0.00000000  0.02320081       0.012
   0.04283489  0.00000000  0.02320081       0.012
   0.06425234  0.00000000  0.02320081       0.012
   0.08566978  0.00000000  0.02320081       0.012
   0.10708723  0.00000000  0.02320081       0.012
   0.12850467  0.00000000  0.02320081       0.012
   0.02141745  0.02141745  0.02320081       0.012
   0.04283489  0.02141745  0.02320081       0.024
   0.06425234  0.02141745  0.02320081       0.024
   0.08566978  0.02141745  0.02320081       0.024
   0.10708723  0.02141745  0.02320081       0.024
   0.12850467  0.02141745  0.02320081       0.024
   0.04283489  0.04283489  0.02320081       0.012
   0.06425234  0.04283489  0.02320081       0.024
   0.08566978  0.04283489  0.02320081       0.024
   0.10708723  0.04283489  0.02320081       0.024
   0.12850467  0.04283489  0.02320081       0.024
   0.06425234  0.06425234  0.02320081       0.012
   0.08566978  0.06425234  0.02320081       0.024
   0.10708723  0.06425234  0.02320081       0.024
   0.12850467  0.06425234  0.02320081       0.024
   0.08566978  0.08566978  0.02320081       0.012
   0.10708723  0.08566978  0.02320081       0.024
   0.12850467  0.08566978  0.02320081       0.024
   0.10708723  0.10708723  0.02320081       0.012
   0.12850467  0.10708723  0.02320081       0.024
   0.12850467  0.12850467  0.02320081       0.012
   0.00000000  0.00000000  0.04640162       0.001
   0.02141745  0.00000000  0.04640162       0.006
   0.04283489  0.00000000  0.04640162       0.006
   0.06425234  0.00000000  0.04640162       0.006
   0.08566978  0.00000000  0.04640162       0.006
   0.10708723  0.00000000  0.04640162       0.006
   0.12850467  0.00000000  0.04640162       0.006
   0.02141745  0.02141745  0.04640162       0.006
   0.04283489  0.02141745  0.04640162       0.012
   0.06425234  0.02141745  0.04640162       0.012
   0.08566978  0.02141745  0.04640162       0.012
   0.10708723  0.02141745  0.04640162       0.012
   0.12850467  0.02141745  0.04640162       0.012
   0.04283489  0.04283489  0.04640162       0.006
   0.06425234  0.04283489  0.04640162       0.012
   0.08566978  0.04283489  0.04640162       0.012
   0.10708723  0.04283489  0.04640162       0.012
   0.12850467  0.04283489  0.04640162       0.012
   0.06425234  0.06425234  0.04640162       0.006
   0.08566978  0.06425234  0.04640162       0.012
   0.10708723  0.06425234  0.04640162       0.012
   0.12850467  0.06425234  0.04640162       0.012
   0.08566978  0.08566978  0.04640162       0.006
   0.10708723  0.08566978  0.04640162       0.012
   0.12850467  0.08566978  0.04640162       0.012
   0.10708723  0.10708723  0.04640162       0.006
   0.12850467  0.10708723  0.04640162       0.012
   0.12850467  0.12850467  0.04640162       0.006
 
 k-points in reciprocal lattice and weights: pymatgen with grid density = 8800 / numb
   0.00000000  0.00000000  0.00000000       0.001
   0.07692308  0.00000000  0.00000000       0.006
   0.15384615  0.00000000  0.00000000       0.006
   0.23076923  0.00000000  0.00000000       0.006
   0.30769231  0.00000000  0.00000000       0.006
   0.38461538  0.00000000  0.00000000       0.006
   0.46153846  0.00000000  0.00000000       0.006
   0.07692308  0.07692308  0.00000000       0.006
   0.15384615  0.07692308  0.00000000       0.012
   0.23076923  0.07692308  0.00000000       0.012
   0.30769231  0.07692308  0.00000000       0.012
   0.38461538  0.07692308  0.00000000       0.012
   0.46153846  0.07692308  0.00000000       0.012
   0.15384615  0.15384615  0.00000000       0.006
   0.23076923  0.15384615  0.00000000       0.012
   0.30769231  0.15384615  0.00000000       0.012
   0.38461538  0.15384615  0.00000000       0.012
   0.46153846  0.15384615  0.00000000       0.012
   0.23076923  0.23076923  0.00000000       0.006
   0.30769231  0.23076923  0.00000000       0.012
   0.38461538  0.23076923  0.00000000       0.012
   0.46153846  0.23076923  0.00000000       0.012
   0.30769231  0.30769231  0.00000000       0.006
   0.38461538  0.30769231  0.00000000       0.012
   0.46153846  0.30769231  0.00000000       0.012
   0.38461538  0.38461538  0.00000000       0.006
   0.46153846  0.38461538  0.00000000       0.012
   0.46153846  0.46153846  0.00000000       0.006
   0.00000000  0.00000000  0.25000000       0.003
   0.07692308  0.00000000  0.25000000       0.012
   0.15384615  0.00000000  0.25000000       0.012
   0.23076923  0.00000000  0.25000000       0.012
   0.30769231  0.00000000  0.25000000       0.012
   0.38461538  0.00000000  0.25000000       0.012
   0.46153846  0.00000000  0.25000000       0.012
   0.07692308  0.07692308  0.25000000       0.012
   0.15384615  0.07692308  0.25000000       0.024
   0.23076923  0.07692308  0.25000000       0.024
   0.30769231  0.07692308  0.25000000       0.024
   0.38461538  0.07692308  0.25000000       0.024
   0.46153846  0.07692308  0.25000000       0.024
   0.15384615  0.15384615  0.25000000       0.012
   0.23076923  0.15384615  0.25000000       0.024
   0.30769231  0.15384615  0.25000000       0.024
   0.38461538  0.15384615  0.25000000       0.024
   0.46153846  0.15384615  0.25000000       0.024
   0.23076923  0.23076923  0.25000000       0.012
   0.30769231  0.23076923  0.25000000       0.024
   0.38461538  0.23076923  0.25000000       0.024
   0.46153846  0.23076923  0.25000000       0.024
   0.30769231  0.30769231  0.25000000       0.012
   0.38461538  0.30769231  0.25000000       0.024
   0.46153846  0.30769231  0.25000000       0.024
   0.38461538  0.38461538  0.25000000       0.012
   0.46153846  0.38461538  0.25000000       0.024
   0.46153846  0.46153846  0.25000000       0.012
   0.00000000  0.00000000  0.50000000       0.001
   0.07692308  0.00000000  0.50000000       0.006
   0.15384615  0.00000000  0.50000000       0.006
   0.23076923  0.00000000  0.50000000       0.006
   0.30769231  0.00000000  0.50000000       0.006
   0.38461538  0.00000000  0.50000000       0.006
   0.46153846  0.00000000  0.50000000       0.006
   0.07692308  0.07692308  0.50000000       0.006
   0.15384615  0.07692308  0.50000000       0.012
   0.23076923  0.07692308  0.50000000       0.012
   0.30769231  0.07692308  0.50000000       0.012
   0.38461538  0.07692308  0.50000000       0.012
   0.46153846  0.07692308  0.50000000       0.012
   0.15384615  0.15384615  0.50000000       0.006
   0.23076923  0.15384615  0.50000000       0.012
   0.30769231  0.15384615  0.50000000       0.012
   0.38461538  0.15384615  0.50000000       0.012
   0.46153846  0.15384615  0.50000000       0.012
   0.23076923  0.23076923  0.50000000       0.006
   0.30769231  0.23076923  0.50000000       0.012
   0.38461538  0.23076923  0.50000000       0.012
   0.46153846  0.23076923  0.50000000       0.012
   0.30769231  0.30769231  0.50000000       0.006
   0.38461538  0.30769231  0.50000000       0.012
   0.46153846  0.30769231  0.50000000       0.012
   0.38461538  0.38461538  0.50000000       0.006
   0.46153846  0.38461538  0.50000000       0.012
   0.46153846  0.46153846  0.50000000       0.006
 
 position of ions in fractional coordinates (direct lattice) 
   0.00000000  0.50000000  0.16661004
   0.00000000  0.50000000  0.50000000
   0.00000000  0.50000000  0.83338996
   0.50000000  0.50000000  0.00000000
   0.50000000  0.50000000  0.33325076
   0.50000000  0.50000000  0.66674924
   0.50000000  0.00000000  0.16661004
   0.50000000  0.00000000  0.50000000
   0.50000000  0.00000000  0.83338996
   0.00000000  0.00000000  0.00000000
   0.00000000  0.00000000  0.33330236
   0.00000000  0.00000000  0.66669764
 
 position of ions in cartesian coordinates  (Angst):
   0.00000000  1.79580420  1.79530407
   0.00000000  1.79580420  5.38774267
   0.00000000  1.79580420  8.98018128
   1.79580420  1.79580420  0.00000000
   1.79580420  1.79580420  3.59093871
   1.79580420  1.79580420  7.18454663
   1.79580420  0.00000000  1.79530407
   1.79580420  0.00000000  5.38774267
   1.79580420  0.00000000  8.98018128
   0.00000000  0.00000000  0.00000000
   0.00000000  0.00000000  3.59149473
   0.00000000  0.00000000  7.18399062
 


--------------------------------------------------------------------------------------------------------


 k-point     1 :   0.0000 0.0000 0.0000  plane waves:    3713
 k-point     2 :   0.0769 0.0000 0.0000  plane waves:    3747
 k-point     3 :   0.1538 0.0000 0.0000  plane waves:    3765
 k-point     4 :   0.2308 0.0000 0.0000  plane waves:    3753
 k-point     5 :   0.3077 0.0000 0.0000  plane waves:    3755
 k-point     6 :   0.3846 0.0000 0.0000  plane waves:    3744
 k-point     7 :   0.4615 0.0000 0.0000  plane waves:    3734
 k-point     8 :   0.0769 0.0769 0.0000  plane waves:    3741
 k-point     9 :   0.1538 0.0769 0.0000  plane waves:    3760
 k-point    10 :   0.2308 0.0769 0.0000  plane waves:    3752
 k-point    11 :   0.3077 0.0769 0.0000  plane waves:    3746
 k-point    12 :   0.3846 0.0769 0.0000  plane waves:    3737
 k-point    13 :   0.4615 0.0769 0.0000  plane waves:    3733
 k-point    14 :   0.1538 0.1538 0.0000  plane waves:    3753
 k-point    15 :   0.2308 0.1538 0.0000  plane waves:    3745
 k-point    16 :   0.3077 0.1538 0.0000  plane waves:    3738
 k-point    17 :   0.3846 0.1538 0.0000  plane waves:    3725
 k-point    18 :   0.4615 0.1538 0.0000  plane waves:    3732
 k-point    19 :   0.2308 0.2308 0.0000  plane waves:    3749
 k-point    20 :   0.3077 0.2308 0.0000  plane waves:    3740
 k-point    21 :   0.3846 0.2308 0.0000  plane waves:    3728
 k-point    22 :   0.4615 0.2308 0.0000  plane waves:    3717
 k-point    23 :   0.3077 0.3077 0.0000  plane waves:    3738
 k-point    24 :   0.3846 0.3077 0.0000  plane waves:    3740
 k-point    25 :   0.4615 0.3077 0.0000  plane waves:    3733
 k-point    26 :   0.3846 0.3846 0.0000  plane waves:    3738
 k-point    27 :   0.4615 0.3846 0.0000  plane waves:    3746
 k-point    28 :   0.4615 0.4615 0.0000  plane waves:    3754
 k-point    29 :   0.0000 0.0000 0.2500  plane waves:    3768
 k-point    30 :   0.0769 0.0000 0.2500  plane waves:    3753
 k-point    31 :   0.1538 0.0000 0.2500  plane waves:    3757
 k-point    32 :   0.2308 0.0000 0.2500  plane waves:    3764
 k-point    33 :   0.3077 0.0000 0.2500  plane waves:    3749
 k-point    34 :   0.3846 0.0000 0.2500  plane waves:    3723
 k-point    35 :   0.4615 0.0000 0.2500  plane waves:    3736
 k-point    36 :   0.0769 0.0769 0.2500  plane waves:    3756
 k-point    37 :   0.1538 0.0769 0.2500  plane waves:    3762
 k-point    38 :   0.2308 0.0769 0.2500  plane waves:    3754
 k-point    39 :   0.3077 0.0769 0.2500  plane waves:    3743
 k-point    40 :   0.3846 0.0769 0.2500  plane waves:    3731
 k-point    41 :   0.4615 0.0769 0.2500  plane waves:    3735
 k-point    42 :   0.1538 0.1538 0.2500  plane waves:    3761
 k-point    43 :   0.2308 0.1538 0.2500  plane waves:    3741
 k-point    44 :   0.3077 0.1538 0.2500  plane waves:    3729
 k-point    45 :   0.3846 0.1538 0.2500  plane waves:    3733
 k-point    46 :   0.4615 0.1538 0.2500  plane waves:    3728
 k-point    47 :   0.2308 0.2308 0.2500  plane waves:    3742
 k-point    48 :   0.3077 0.2308 0.2500  plane waves:    3738
 k-point    49 :   0.3846 0.2308 0.2500  plane waves:    3738
 k-point    50 :   0.4615 0.2308 0.2500  plane waves:    3737
 k-point    51 :   0.3077 0.3077 0.2500  plane waves:    3728
 k-point    52 :   0.3846 0.3077 0.2500  plane waves:    3740
 k-point    53 :   0.4615 0.3077 0.2500  plane waves:    3735
 k-point    54 :   0.3846 0.3846 0.2500  plane waves:    3747
 k-point    55 :   0.4615 0.3846 0.2500  plane waves:    3751
 k-point    56 :   0.4615 0.4615 0.2500  plane waves:    3750
 k-point    57 :   0.0000 0.0000 0.5000  plane waves:    3760
 k-point    58 :   0.0769 0.0000 0.5000  plane waves:    3772
 k-point    59 :   0.1538 0.0000 0.5000  plane waves:    3770
 k-point    60 :   0.2308 0.0000 0.5000  plane waves:    3768
 k-point    61 :   0.3077 0.0000 0.5000  plane waves:    3752
 k-point    62 :   0.3846 0.0000 0.5000  plane waves:    3718
 k-point    63 :   0.4615 0.0000 0.5000  plane waves:    3734
 k-point    64 :   0.0769 0.0769 0.5000  plane waves:    3776
 k-point    65 :   0.1538 0.0769 0.5000  plane waves:    3764
 k-point    66 :   0.2308 0.0769 0.5000  plane waves:    3750
 k-point    67 :   0.3077 0.0769 0.5000  plane waves:    3742
 k-point    68 :   0.3846 0.0769 0.5000  plane waves:    3728
 k-point    69 :   0.4615 0.0769 0.5000  plane waves:    3736
 k-point    70 :   0.1538 0.1538 0.5000  plane waves:    3752
 k-point    71 :   0.2308 0.1538 0.5000  plane waves:    3746
 k-point    72 :   0.3077 0.1538 0.5000  plane waves:    3742
 k-point    73 :   0.3846 0.1538 0.5000  plane waves:    3748
 k-point    74 :   0.4615 0.1538 0.5000  plane waves:    3748
 k-point    75 :   0.2308 0.2308 0.5000  plane waves:    3744
 k-point    76 :   0.3077 0.2308 0.5000  plane waves:    3726
 k-point    77 :   0.3846 0.2308 0.5000  plane waves:    3730
 k-point    78 :   0.4615 0.2308 0.5000  plane waves:    3736
 k-point    79 :   0.3077 0.3077 0.5000  plane waves:    3726
 k-point    80 :   0.3846 0.3077 0.5000  plane waves:    3734
 k-point    81 :   0.4615 0.3077 0.5000  plane waves:    3734
 k-point    82 :   0.3846 0.3846 0.5000  plane waves:    3744
 k-point    83 :   0.4615 0.3846 0.5000  plane waves:    3750
 k-point    84 :   0.4615 0.4615 0.5000  plane waves:    3748

 maximum and minimum number of plane-waves per node :      3776     3713

 maximum number of plane-waves:      3776
 maximum index in each direction: 
   IXMAX=    6   IYMAX=    6   IZMAX=   20
   IXMIN=   -7   IYMIN=   -7   IZMIN=  -20


 serial   3D FFT for wavefunctions
 parallel 3D FFT for charge:
    minimum data exchange during FFTs selected (reduces bandwidth)


 total amount of memory used by VASP MPI-rank0   172792. kBytes
=======================================================================

   base      :      30000. kBytes
   nonl-proj :      92073. kBytes
   fftplans  :        848. kBytes
   grid      :       6490. kBytes
   one-center:        373. kBytes
   wavefun   :      43008. kBytes
 
     INWAV:  cpu time      0.0000: real time      0.0000
 Broyden mixing: mesh for mixing (old mesh)
   NGX = 13   NGY = 13   NGZ = 41
  (NGX  = 56   NGY  = 56   NGZ  =160)
  gives a total of   6929 points

 initial charge density was supplied:
 charge density of overlapping atoms calculated
 number of electron     156.0000000 magnetization      21.9780000
 keeping initial charge density in first step


--------------------------------------------------------------------------------------------------------


 Maximum index for augmentation-charges         1058 (set IRDMAX)


--------------------------------------------------------------------------------------------------------


 First call to EWALD:  gamma=   0.342
 Maximum number of real-space cells 4x 4x 2
 Maximum number of reciprocal cells 2x 2x 5

    FEWALD:  cpu time      0.0010: real time      0.0010


--------------------------------------- Ionic step        1  -------------------------------------------




--------------------------------------- Iteration      1(   1)  ---------------------------------------


    POTLOK:  cpu time      0.0241: real time      0.1227
    SETDIJ:  cpu time      0.0066: real time      0.0067
     EDDAV:  cpu time      5.4114: real time      5.4576
 BZINTS: Fermi energy:   24.935671;  156.000000 electrons
         Band energy: 0.736005E+03;  BLOECHL correction:   -0.051492
       DOS:  cpu time      0.1288: real time      0.1306
    --------------------------------------------
      LOOP:  cpu time      5.5709: real time      5.7175

 eigenvalue-minimisations  : 43264
 total energy-change (2. order) : 0.1759762E+04  (-0.8342796E+04)
 number of electron     156.0000000 magnetization      21.9780000
 augmentation part      156.0000000 magnetization      21.9780000

 Free energy of the ion-electron system (eV)
  ---------------------------------------------------
  alpha Z        PSCENC =      1224.38942132
  Ewald energy   TEWEN  =    -18801.70747059
  -Hartree energ DENC   =     -5640.22974293
  -exchange      EXHF   =         0.00000000
  -V(xc)+E(xc)   XCENC  =       661.25760679
  PAW double counting   =     20095.32809385   -20819.38323892
  entropy T*S    EENTRO =         0.00000000
  eigenvalues    EBANDS =       736.00459175
  atomic energy  EATOM  =     24304.10294433
  Solvation  Ediel_sol  =         0.00000000
  ---------------------------------------------------
  free energy    TOTEN  =      1759.76220560 eV

  energy without entropy =     1759.76220560  energy(sigma->0) =     1759.76220560


--------------------------------------------------------------------------------------------------------




--------------------------------------- Iteration      1(   2)  ---------------------------------------


     EDDAV:  cpu time      5.3311: real time      5.5051
 BZINTS: Fermi energy:   13.890186;  156.000000 electrons
         Band energy:-0.101704E+04;  BLOECHL correction:   -0.038827
       DOS:  cpu time      0.1300: real time      0.1311
    --------------------------------------------
      LOOP:  cpu time      5.4611: real time      5.6362

 eigenvalue-minimisations  : 43040
 total energy-change (2. order) :-0.1753049E+04  (-0.1660758E+04)
 number of electron     156.0000000 magnetization      21.9780000
 augmentation part      156.0000000 magnetization      21.9780000

 Free energy of the ion-electron system (eV)
  ---------------------------------------------------
  alpha Z        PSCENC =      1224.38942132
  Ewald energy   TEWEN  =    -18801.70747059
  -Hartree energ DENC   =     -5640.22974293
  -exchange      EXHF   =         0.00000000
  -V(xc)+E(xc)   XCENC  =       661.25760679
  PAW double counting   =     20095.32809385   -20819.38323892
  entropy T*S    EENTRO =         0.00000000
  eigenvalues    EBANDS =     -1017.04424581
  atomic energy  EATOM  =     24304.10294433
  Solvation  Ediel_sol  =         0.00000000
  ---------------------------------------------------
  free energy    TOTEN  =         6.71336804 eV

  energy without entropy =        6.71336804  energy(sigma->0) =        6.71336804


--------------------------------------------------------------------------------------------------------




--------------------------------------- Iteration      1(   3)  ---------------------------------------


     EDDAV:  cpu time      6.4381: real time      6.4876
 BZINTS: Fermi energy:   13.313357;  156.000000 electrons
         Band energy:-0.112587E+04;  BLOECHL correction:   -0.071862
       DOS:  cpu time      0.1317: real time      0.1328
    --------------------------------------------
      LOOP:  cpu time      6.5698: real time      6.6204

 eigenvalue-minimisations  : 50720
 total energy-change (2. order) :-0.1088258E+03  (-0.1073715E+03)
 number of electron     156.0000000 magnetization      21.9780000
 augmentation part      156.0000000 magnetization      21.9780000

 Free energy of the ion-electron system (eV)
  ---------------------------------------------------
  alpha Z        PSCENC =      1224.38942132
  Ewald energy   TEWEN  =    -18801.70747059
  -Hartree energ DENC   =     -5640.22974293
  -exchange      EXHF   =         0.00000000
  -V(xc)+E(xc)   XCENC  =       661.25760679
  PAW double counting   =     20095.32809385   -20819.38323892
  entropy T*S    EENTRO =         0.00000000
  eigenvalues    EBANDS =     -1125.87000565
  atomic energy  EATOM  =     24304.10294433
  Solvation  Ediel_sol  =         0.00000000
  ---------------------------------------------------
  free energy    TOTEN  =      -102.11239180 eV

  energy without entropy =     -102.11239180  energy(sigma->0) =     -102.11239180


--------------------------------------------------------------------------------------------------------




--------------------------------------- Iteration      1(   4)  ---------------------------------------


     EDDAV:  cpu time      5.7124: real time      5.7626
 BZINTS: Fermi energy:   13.308755;  156.000000 electrons
         Band energy:-0.112734E+04;  BLOECHL correction:   -0.072084
       DOS:  cpu time      0.1298: real time      0.1308
    --------------------------------------------
      LOOP:  cpu time      5.8422: real time      5.8934

 eigenvalue-minimisations  : 45600
 total energy-change (2. order) :-0.1471127E+01  (-0.1470738E+01)
 number of electron     156.0000000 magnetization      21.9780000
 augmentation part      156.0000000 magnetization      21.9780000

 Free energy of the ion-electron system (eV)
  ---------------------------------------------------
  alpha Z        PSCENC =      1224.38942132
  Ewald energy   TEWEN  =    -18801.70747059
  -Hartree energ DENC   =     -5640.22974293
  -exchange      EXHF   =         0.00000000
  -V(xc)+E(xc)   XCENC  =       661.25760679
  PAW double counting   =     20095.32809385   -20819.38323892
  entropy T*S    EENTRO =         0.00000000
  eigenvalues    EBANDS =     -1127.34113312
  atomic energy  EATOM  =     24304.10294433
  Solvation  Ediel_sol  =         0.00000000
  ---------------------------------------------------
  free energy    TOTEN  =      -103.58351927 eV

  energy without entropy =     -103.58351927  energy(sigma->0) =     -103.58351927


--------------------------------------------------------------------------------------------------------




--------------------------------------- Iteration      1(   5)  ---------------------------------------


     EDDAV:  cpu time      6.7831: real time      6.8376
 BZINTS: Fermi energy:   13.308711;  156.000000 electrons
         Band energy:-0.112737E+04;  BLOECHL correction:   -0.072084
       DOS:  cpu time      0.1307: real time      0.1318
    CHARGE:  cpu time      0.1366: real time      0.1380
    MIXING:  cpu time      0.0078: real time      0.0082
    --------------------------------------------
      LOOP:  cpu time      7.0582: real time      7.1156

 eigenvalue-minimisations  : 53184
 total energy-change (2. order) :-0.2532881E-01  (-0.2532798E-01)
 number of electron     155.9999839 magnetization      19.5355479
 augmentation part       79.3348287 magnetization      15.2163125

 Broyden mixing:
  rms(total) = 0.44690E+01    rms(broyden)= 0.44684E+01
  rms(prec ) = 0.48831E+01
  weight for this iteration     100.00

 Free energy of the ion-electron system (eV)
  ---------------------------------------------------
  alpha Z        PSCENC =      1224.38942132
  Ewald energy   TEWEN  =    -18801.70747059
  -Hartree energ DENC   =     -5640.22974293
  -exchange      EXHF   =         0.00000000
  -V(xc)+E(xc)   XCENC  =       661.25760679
  PAW double counting   =     20095.32809385   -20819.38323892
  entropy T*S    EENTRO =         0.00000000
  eigenvalues    EBANDS =     -1127.36646193
  atomic energy  EATOM  =     24304.10294433
  Solvation  Ediel_sol  =         0.00000000
  ---------------------------------------------------
  free energy    TOTEN  =      -103.60884808 eV

  energy without entropy =     -103.60884808  energy(sigma->0) =     -103.60884808


--------------------------------------------------------------------------------------------------------




--------------------------------------- Iteration      1(   6)  ---------------------------------------


    POTLOK:  cpu time      0.0389: real time      0.0433
    SETDIJ:  cpu time      0.0081: real time      0.0082
     EDDAV:  cpu time      6.0801: real time      6.1273
 BZINTS: Fermi energy:   10.684202;  156.000000 electrons
         Band energy:-0.150933E+04;  BLOECHL correction:   -0.082493
       DOS:  cpu time      0.1358: real time      0.1369
    CHARGE:  cpu time      0.1304: real time      0.1311
    MIXING:  cpu time      0.0034: real time      0.0035
    --------------------------------------------
      LOOP:  cpu time      6.3967: real time      6.4502

 eigenvalue-minimisations  : 48800
 total energy-change (2. order) : 0.5750865E+01  (-0.5838045E+01)
 number of electron     155.9999827 magnetization      18.6049495
 augmentation part       87.2927156 magnetization      14.3738911

 Broyden mixing:
  rms(total) = 0.29611E+01    rms(broyden)= 0.29608E+01
  rms(prec ) = 0.36858E+01
  weight for this iteration     100.00

 eigenvalues of (default mixing * dielectric matrix)
  average eigenvalue GAMMA=   0.6106
  0.6106

 Free energy of the ion-electron system (eV)
  ---------------------------------------------------
  alpha Z        PSCENC =      1224.38942132
  Ewald energy   TEWEN  =    -18801.70747059
  -Hartree energ DENC   =     -5254.03613878
  -exchange      EXHF   =         0.00000000
  -V(xc)+E(xc)   XCENC  =       643.47450108
  PAW double counting   =     20884.65256787   -21589.40136399
  entropy T*S    EENTRO =         0.00000000
  eigenvalues    EBANDS =     -1509.33244471
  atomic energy  EATOM  =     24304.10294433
  Solvation  Ediel_sol  =         0.00000000
  ---------------------------------------------------
  free energy    TOTEN  =       -97.85798347 eV

  energy without entropy =      -97.85798347  energy(sigma->0) =      -97.85798347


--------------------------------------------------------------------------------------------------------




--------------------------------------- Iteration      1(   7)  ---------------------------------------


    POTLOK:  cpu time      0.0382: real time      0.0430
    SETDIJ:  cpu time      0.0080: real time      0.0081
     EDDAV:  cpu time      6.2859: real time      6.3299
 BZINTS: Fermi energy:   12.102030;  156.000000 electrons
         Band energy:-0.131698E+04;  BLOECHL correction:   -0.051156
       DOS:  cpu time      0.1374: real time      0.1383
    CHARGE:  cpu time      0.1324: real time      0.1331
    MIXING:  cpu time      0.0032: real time      0.0032
    --------------------------------------------
      LOOP:  cpu time      6.6051: real time      6.6556

 eigenvalue-minimisations  : 49728
 total energy-change (2. order) : 0.1050317E+01  (-0.9611467E+01)
 number of electron     155.9999835 magnetization      17.5333068
 augmentation part       82.6778329 magnetization      13.0985142

 Broyden mixing:
  rms(total) = 0.25555E+01    rms(broyden)= 0.25551E+01
  rms(prec ) = 0.29796E+01
  weight for this iteration     100.00

 eigenvalues of (default mixing * dielectric matrix)
  average eigenvalue GAMMA=   0.7540
  1.1651  0.3429

 Free energy of the ion-electron system (eV)
  ---------------------------------------------------
  alpha Z        PSCENC =      1224.38942132
  Ewald energy   TEWEN  =    -18801.70747059
  -Hartree energ DENC   =     -5414.92963908
  -exchange      EXHF   =         0.00000000
  -V(xc)+E(xc)   XCENC  =       649.24096241
  PAW double counting   =     21638.26606254   -22379.18510930
  entropy T*S    EENTRO =         0.00000000
  eigenvalues    EBANDS =     -1316.98483784
  atomic energy  EATOM  =     24304.10294433
  Solvation  Ediel_sol  =         0.00000000
  ---------------------------------------------------
  free energy    TOTEN  =       -96.80766621 eV

  energy without entropy =      -96.80766621  energy(sigma->0) =      -96.80766621


--------------------------------------------------------------------------------------------------------




--------------------------------------- Iteration      1(   8)  ---------------------------------------


    POTLOK:  cpu time      0.0373: real time      0.0437
    SETDIJ:  cpu time      0.0074: real time      0.0075
     EDDAV:  cpu time      6.1415: real time      6.1890
 BZINTS: Fermi energy:   11.500790;  156.000000 electrons
         Band energy:-0.138336E+04;  BLOECHL correction:   -0.049690
       DOS:  cpu time      0.1356: real time      0.1366
    CHARGE:  cpu time      0.1321: real time      0.1328
    MIXING:  cpu time      0.0020: real time      0.0020
    --------------------------------------------
      LOOP:  cpu time      6.4559: real time      6.5116

 eigenvalue-minimisations  : 49344
 total energy-change (2. order) : 0.3712976E+01  (-0.8077930E+00)
 number of electron     155.9999835 magnetization      17.4013587
 augmentation part       84.2127326 magnetization      13.3071884

 Broyden mixing:
  rms(total) = 0.13619E+01    rms(broyden)= 0.13618E+01
  rms(prec ) = 0.19364E+01
  weight for this iteration     100.00

 eigenvalues of (default mixing * dielectric matrix)
  average eigenvalue GAMMA=   0.7107
  1.2639  0.4341  0.4341

 Free energy of the ion-electron system (eV)
  ---------------------------------------------------
  alpha Z        PSCENC =      1224.38942132
  Ewald energy   TEWEN  =    -18801.70747059
  -Hartree energ DENC   =     -5335.77519071
  -exchange      EXHF   =         0.00000000
  -V(xc)+E(xc)   XCENC  =       646.56178362
  PAW double counting   =     22161.99323137   -22909.30350466
  entropy T*S    EENTRO =         0.00000000
  eigenvalues    EBANDS =     -1383.35590519
  atomic energy  EATOM  =     24304.10294433
  Solvation  Ediel_sol  =         0.00000000
  ---------------------------------------------------
  free energy    TOTEN  =       -93.09469051 eV

  energy without entropy =      -93.09469051  energy(sigma->0) =      -93.09469051


--------------------------------------------------------------------------------------------------------




--------------------------------------- Iteration      1(   9)  ---------------------------------------


    POTLOK:  cpu time      0.0394: real time      0.0437
    SETDIJ:  cpu time      0.0079: real time      0.0079
     EDDAV:  cpu time      6.8056: real time      6.8585
 BZINTS: Fermi energy:   11.494848;  156.000000 electrons
         Band energy:-0.139462E+04;  BLOECHL correction:   -0.044481
       DOS:  cpu time      0.1353: real time      0.1361
    CHARGE:  cpu time      0.1329: real time      0.1338
    MIXING:  cpu time      0.0019: real time      0.0019
    --------------------------------------------
      LOOP:  cpu time      7.1231: real time      7.1820

 eigenvalue-minimisations  : 52672
 total energy-change (2. order) :-0.2393142E+01  (-0.2942137E+01)
 number of electron     155.9999829 magnetization      17.0690126
 augmentation part       84.5161554 magnetization      13.3205044

 Broyden mixing:
  rms(total) = 0.30260E+01    rms(broyden)= 0.30258E+01
  rms(prec ) = 0.48490E+01
  weight for this iteration     100.00

 eigenvalues of (default mixing * dielectric matrix)
  average eigenvalue GAMMA=   0.6774
  1.4954  0.7477  0.3759  0.0907

 Free energy of the ion-electron system (eV)
  ---------------------------------------------------
  alpha Z        PSCENC =      1224.38942132
  Ewald energy   TEWEN  =    -18801.70747059
  -Hartree energ DENC   =     -5324.78975694
  -exchange      EXHF   =         0.00000000
  -V(xc)+E(xc)   XCENC  =       646.28674292
  PAW double counting   =     22258.65252581   -23007.80005823
  entropy T*S    EENTRO =         0.00000000
  eigenvalues    EBANDS =     -1394.62218127
  atomic energy  EATOM  =     24304.10294433
  Solvation  Ediel_sol  =         0.00000000
  ---------------------------------------------------
  free energy    TOTEN  =       -95.48783265 eV

  energy without entropy =      -95.48783265  energy(sigma->0) =      -95.48783265


--------------------------------------------------------------------------------------------------------




--------------------------------------- Iteration      1(  10)  ---------------------------------------


    POTLOK:  cpu time      0.0429: real time      0.0437
    SETDIJ:  cpu time      0.0081: real time      0.0081
     EDDAV:  cpu time      6.6475: real time      6.7007
 BZINTS: Fermi energy:   11.320562;  156.000000 electrons
         Band energy:-0.140493E+04;  BLOECHL correction:   -0.050377
       DOS:  cpu time      0.1358: real time      0.1367
    CHARGE:  cpu time      0.1326: real time      0.1333
    MIXING:  cpu time      0.0018: real time      0.0018
    --------------------------------------------
      LOOP:  cpu time      6.9687: real time      7.0244

 eigenvalue-minimisations  : 52256
 total energy-change (2. order) : 0.2369490E+01  (-0.3374062E+01)
 number of electron     155.9999831 magnetization      16.9896220
 augmentation part       84.7811609 magnetization      13.1118785

 Broyden mixing:
  rms(total) = 0.17190E+01    rms(broyden)= 0.17187E+01
  rms(prec ) = 0.26220E+01
  weight for this iteration     100.00

 eigenvalues of (default mixing * dielectric matrix)
  average eigenvalue GAMMA=   0.5998
  1.5593  0.7996  0.3644  0.1920  0.0836

 Free energy of the ion-electron system (eV)
  ---------------------------------------------------
  alpha Z        PSCENC =      1224.38942132
  Ewald energy   TEWEN  =    -18801.70747059
  -Hartree energ DENC   =     -5307.34028615
  -exchange      EXHF   =         0.00000000
  -V(xc)+E(xc)   XCENC  =       645.80568539
  PAW double counting   =     22458.18986812   -23211.63203069
  entropy T*S    EENTRO =         0.00000000
  eigenvalues    EBANDS =     -1404.92647435
  atomic energy  EATOM  =     24304.10294433
  Solvation  Ediel_sol  =         0.00000000
  ---------------------------------------------------
  free energy    TOTEN  =       -93.11834261 eV

  energy without entropy =      -93.11834261  energy(sigma->0) =      -93.11834261


--------------------------------------------------------------------------------------------------------




--------------------------------------- Iteration      1(  11)  ---------------------------------------


    POTLOK:  cpu time      0.0375: real time      0.0438
    SETDIJ:  cpu time      0.0082: real time      0.0082
     EDDAV:  cpu time      6.5914: real time      6.6412
 BZINTS: Fermi energy:   11.283196;  156.000000 electrons
         Band energy:-0.140532E+04;  BLOECHL correction:   -0.061085
       DOS:  cpu time      0.1364: real time      0.1374
    CHARGE:  cpu time      0.1310: real time      0.1318
    MIXING:  cpu time      0.0021: real time      0.0021
    --------------------------------------------
      LOOP:  cpu time      6.9066: real time      6.9646

 eigenvalue-minimisations  : 51936
 total energy-change (2. order) : 0.9344798E+00  (-0.8901719E+00)
 number of electron     155.9999833 magnetization      17.0456786
 augmentation part       84.8336895 magnetization      13.0126583

 Broyden mixing:
  rms(total) = 0.65408E+00    rms(broyden)= 0.65359E+00
  rms(prec ) = 0.86428E+00
  weight for this iteration     100.00

 eigenvalues of (default mixing * dielectric matrix)
  average eigenvalue GAMMA=   0.5935
  1.5257  0.9849  0.4316  0.4316  0.1118  0.0753

 Free energy of the ion-electron system (eV)
  ---------------------------------------------------
  alpha Z        PSCENC =      1224.38942132
  Ewald energy   TEWEN  =    -18801.70747059
  -Hartree energ DENC   =     -5304.52164204
  -exchange      EXHF   =         0.00000000
  -V(xc)+E(xc)   XCENC  =       645.74089796
  PAW double counting   =     22516.86826751   -23271.73598874
  entropy T*S    EENTRO =         0.00000000
  eigenvalues    EBANDS =     -1405.32029259
  atomic energy  EATOM  =     24304.10294433
  Solvation  Ediel_sol  =         0.00000000
  ---------------------------------------------------
  free energy    TOTEN  =       -92.18386283 eV

  energy without entropy =      -92.18386283  energy(sigma->0) =      -92.18386283


--------------------------------------------------------------------------------------------------------




--------------------------------------- Iteration      1(  12)  ---------------------------------------


    POTLOK:  cpu time      0.0386: real time      0.0438
    SETDIJ:  cpu time      0.0078: real time      0.0079
     EDDAV:  cpu time      6.1786: real time      6.2277
 BZINTS: Fermi energy:   11.300462;  156.000000 electrons
         Band energy:-0.140262E+04;  BLOECHL correction:   -0.062397
       DOS:  cpu time      0.1347: real time      0.1356
    CHARGE:  cpu time      0.1315: real time      0.1327
    MIXING:  cpu time      0.0023: real time      0.0023
    --------------------------------------------
      LOOP:  cpu time      6.4936: real time      6.5500

 eigenvalue-minimisations  : 49824
 total energy-change (2. order) : 0.5236473E-02  (-0.9926303E-01)
 number of electron     155.9999833 magnetization      17.0973199
 augmentation part       84.7812915 magnetization      13.0170150

 Broyden mixing:
  rms(total) = 0.53019E+00    rms(broyden)= 0.53011E+00
  rms(prec ) = 0.64817E+00
  weight for this iteration     100.00

 eigenvalues of (default mixing * dielectric matrix)
  average eigenvalue GAMMA=   0.5386
  1.5498  0.9978  0.3921  0.3921  0.2479  0.1129  0.0775

 Free energy of the ion-electron system (eV)
  ---------------------------------------------------
  alpha Z        PSCENC =      1224.38942132
  Ewald energy   TEWEN  =    -18801.70747059
  -Hartree energ DENC   =     -5304.83247734
  -exchange      EXHF   =         0.00000000
  -V(xc)+E(xc)   XCENC  =       645.98751544
  PAW double counting   =     22609.31575077   -23366.81112536
  entropy T*S    EENTRO =         0.00000000
  eigenvalues    EBANDS =     -1402.62318493
  atomic energy  EATOM  =     24304.10294433
  Solvation  Ediel_sol  =         0.00000000
  ---------------------------------------------------
  free energy    TOTEN  =       -92.17862636 eV

  energy without entropy =      -92.17862636  energy(sigma->0) =      -92.17862636


--------------------------------------------------------------------------------------------------------




--------------------------------------- Iteration      1(  13)  ---------------------------------------


    POTLOK:  cpu time      0.0419: real time      0.0434
    SETDIJ:  cpu time      0.0077: real time      0.0078
     EDDAV:  cpu time      6.2849: real time      6.3346
 BZINTS: Fermi energy:   11.295927;  156.000000 electrons
         Band energy:-0.140255E+04;  BLOECHL correction:   -0.064086
       DOS:  cpu time      0.1353: real time      0.1363
    CHARGE:  cpu time      0.1322: real time      0.1329
    MIXING:  cpu time      0.0018: real time      0.0018
    --------------------------------------------
      LOOP:  cpu time      6.6037: real time      6.6567

 eigenvalue-minimisations  : 50304
 total energy-change (2. order) : 0.4838646E-01  (-0.5725638E-01)
 number of electron     155.9999834 magnetization      17.2883517
 augmentation part       84.7884975 magnetization      13.1809500

 Broyden mixing:
  rms(total) = 0.36684E+00    rms(broyden)= 0.36679E+00
  rms(prec ) = 0.40139E+00
  weight for this iteration     100.00

 eigenvalues of (default mixing * dielectric matrix)
  average eigenvalue GAMMA=   0.5323
  1.5854  1.0224  0.4917  0.4917  0.3670  0.0767  0.1221  0.1012

 Free energy of the ion-electron system (eV)
  ---------------------------------------------------
  alpha Z        PSCENC =      1224.38942132
  Ewald energy   TEWEN  =    -18801.70747059
  -Hartree energ DENC   =     -5304.48591637
  -exchange      EXHF   =         0.00000000
  -V(xc)+E(xc)   XCENC  =       646.04329802
  PAW double counting   =     22627.74733134   -23385.66989735
  entropy T*S    EENTRO =         0.00000000
  eigenvalues    EBANDS =     -1402.54995059
  atomic energy  EATOM  =     24304.10294433
  Solvation  Ediel_sol  =         0.00000000
  ---------------------------------------------------
  free energy    TOTEN  =       -92.13023990 eV

  energy without entropy =      -92.13023990  energy(sigma->0) =      -92.13023990


--------------------------------------------------------------------------------------------------------




--------------------------------------- Iteration      1(  14)  ---------------------------------------


    POTLOK:  cpu time      0.0426: real time      0.0434
    SETDIJ:  cpu time      0.0080: real time      0.0081
     EDDAV:  cpu time      6.4066: real time      6.4555
[...]
    113      27.4164      0.00000
    114      27.8164      0.00000
    115      27.8173      0.00000
    116      28.2410      0.00000
    117      28.2436      0.00000
    118      29.1882      0.00000
    119      29.1887      0.00000
    120      29.4644      0.00000
    121      29.4668      0.00000
    122      29.5152      0.00000
    123      30.0622      0.00000
    124      31.4656      0.00000
    125      31.4660      0.00000
    126      31.8609      0.00000
    127      31.8613      0.00000
    128      32.7830      0.00000


--------------------------------------------------------------------------------------------------------


 soft charge-density along one line, spin component           1
         0         1         2         3         4         5         6         7         8         9
 total charge-density along one line
 
 soft charge-density along one line, spin component           2
         0         1         2         3         4         5         6         7         8         9
 total charge-density along one line
 
 pseudopotential strength for first ion, spin component:           1
-43.744  -0.000   0.000   7.109   0.000  -0.000  -0.000   0.000
 -0.000 -43.744  -0.000   0.000   7.109   0.000  -0.000   0.000
  0.000  -0.000 -43.618  -0.000   0.000   7.059   0.000  -0.000
  7.109   0.000  -0.000   5.750   0.000  -0.000   0.000  -0.000
  0.000   7.109   0.000   0.000   5.750   0.000   0.000  -0.000
 -0.000   0.000   7.059  -0.000   0.000   5.759  -0.000   0.000
 -0.000  -0.000   0.000   0.000   0.000  -0.000  -1.029  -0.000
  0.000   0.000  -0.000  -0.000  -0.000   0.000  -0.000  -1.121
 -0.000   0.000   0.000   0.000  -0.000  -0.000  -0.000  -0.000
 -0.000  -0.000   0.000   0.000   0.000  -0.000  -0.000   0.000
 -0.000  -0.000  -0.000   0.000   0.000   0.000   0.000   0.000
 -0.000  -0.000   0.000   0.000   0.000  -0.000  -1.559  -0.000
  0.000   0.000  -0.000  -0.000  -0.000   0.000  -0.000  -1.649
 -0.000   0.000   0.000   0.000  -0.000  -0.000  -0.000  -0.000
 -0.000  -0.000   0.000   0.000   0.000  -0.000  -0.000   0.000
 -0.000  -0.000  -0.000   0.000   0.000   0.000   0.000   0.000
 -0.000  -0.000   0.000  -0.000   0.000   0.000  -0.000   0.000
 -0.000  -0.000   0.000  -0.000   0.000   0.000  -0.000   0.000
 pseudopotential strength for first ion, spin component:           2
-41.692  -0.000   0.000   6.243   0.000  -0.000  -0.000   0.000
 -0.000 -41.694  -0.000   0.000   6.244   0.000   0.000   0.000
  0.000  -0.000 -41.576  -0.000   0.000   6.196   0.000   0.000
  6.243   0.000  -0.000   5.987   0.000  -0.000   0.000  -0.000
  0.000   6.244   0.000   0.000   5.987   0.000  -0.000  -0.000
 -0.000   0.000   6.196  -0.000   0.000   5.997  -0.000  -0.000
 -0.000   0.000   0.000   0.000  -0.000  -0.000   0.600  -0.000
  0.000   0.000   0.000  -0.000  -0.000  -0.000  -0.000   0.514
 -0.000   0.000   0.000   0.000  -0.000  -0.000  -0.000  -0.000
  0.000  -0.000   0.000  -0.000   0.000  -0.000  -0.000   0.000
 -0.000  -0.000  -0.000   0.000   0.000   0.000  -0.000   0.000
 -0.000   0.000   0.000   0.000  -0.000  -0.000   0.043  -0.000
  0.000   0.000   0.000  -0.000  -0.000  -0.000  -0.000  -0.042
 -0.000   0.000   0.000   0.000  -0.000  -0.000  -0.000  -0.000
  0.000   0.000   0.000  -0.000   0.000  -0.000  -0.000   0.000
 -0.000  -0.000  -0.000   0.000   0.000   0.000  -0.000   0.000
 -0.000  -0.000   0.000  -0.000   0.000   0.000  -0.000   0.000
 -0.000  -0.000   0.000  -0.000   0.000   0.000  -0.000   0.000
 total augmentation occupancy for first ion, spin component:           1
  1.992   0.000   0.000  -0.023   0.000   0.000   0.000   0.000   0.000   0.000  -0.000  -0.000  -0.000   0.000   0.000  -0.000
  0.000   1.992   0.000   0.000  -0.023   0.000   0.000  -0.000  -0.000   0.000  -0.000   0.000   0.000   0.000   0.000   0.000
  0.000   0.000   1.992   0.000  -0.000  -0.023   0.000   0.000  -0.000  -0.000   0.000   0.000  -0.000  -0.000   0.000   0.000
 -0.023   0.000   0.000   0.218   0.000   0.000  -0.000  -0.000   0.000   0.000   0.000   0.000  -0.000  -0.000   0.000  -0.000
  0.000  -0.023  -0.000   0.000   0.218  -0.000  -0.000   0.000   0.000  -0.000  -0.000   0.000   0.000  -0.000   0.000   0.000
  0.000   0.000  -0.023   0.000  -0.000   0.195   0.000   0.000  -0.000   0.000   0.000   0.000  -0.000   0.000  -0.000   0.000
  0.000   0.000   0.000  -0.000  -0.000   0.000   3.080  -0.000  -0.000   0.000  -0.000  -1.958   0.000   0.000   0.000   0.000
  0.000  -0.000   0.000  -0.000   0.000   0.000  -0.000   3.108   0.000   0.000   0.000  -0.000  -2.412  -0.000   0.000   0.000
  0.000  -0.000  -0.000   0.000   0.000  -0.000  -0.000   0.000   3.566   0.000   0.177   0.000  -0.000  -2.306   0.000  -0.088
  0.000   0.000  -0.000   0.000  -0.000   0.000   0.000   0.000   0.000   3.048  -0.000   0.000   0.000  -0.000  -1.936  -0.000
 -0.000  -0.000   0.000   0.000  -0.000   0.000  -0.000   0.000   0.177  -0.000   3.347  -0.000   0.000  -0.088   0.000  -2.194
 -0.000   0.000   0.000   0.000   0.000   0.000  -1.958  -0.000   0.000   0.000  -0.000   2.260  -0.000   0.000   0.000   0.000
 -0.000   0.000  -0.000  -0.000   0.000  -0.000   0.000  -2.412  -0.000   0.000   0.000  -0.000   2.985  -0.000   0.000  -0.000
  0.000   0.000  -0.000  -0.000  -0.000   0.000   0.000  -0.000  -2.306  -0.000  -0.088   0.000  -0.000   2.336   0.000   0.015
  0.000   0.000   0.000   0.000   0.000  -0.000   0.000   0.000   0.000  -1.936   0.000   0.000   0.000   0.000   2.246  -0.000
 -0.000   0.000   0.000  -0.000   0.000   0.000   0.000   0.000  -0.088  -0.000  -2.194   0.000  -0.000   0.015  -0.000   2.312
  0.000   0.000   0.000  -0.000  -0.000   0.000  -0.000   0.000  -0.133  -0.000   0.226  -0.000   0.000   0.104   0.000  -0.176
  0.000  -0.000   0.000   0.000   0.000   0.000  -0.000   0.000   0.009  -0.000  -0.015   0.000   0.000  -0.006   0.000   0.010
 total augmentation occupancy for first ion, spin component:           2
 -0.002   0.000   0.000  -0.008   0.000   0.000   0.000   0.000   0.000   0.000   0.000  -0.000  -0.000   0.000   0.000   0.000
  0.000  -0.002   0.000   0.000  -0.008   0.000   0.000   0.000   0.000   0.000  -0.000   0.000  -0.000  -0.000   0.000   0.000
  0.000   0.000  -0.002   0.000  -0.000  -0.009   0.000   0.000   0.000   0.000   0.000   0.000  -0.000   0.000  -0.000   0.000
 -0.008   0.000   0.000  -0.005  -0.000   0.000   0.000  -0.000   0.000  -0.000   0.000  -0.000   0.000   0.000   0.000   0.000
  0.000  -0.008  -0.000  -0.000  -0.005   0.000  -0.000   0.000   0.000   0.000   0.000   0.000   0.000  -0.000  -0.000  -0.000
  0.000   0.000  -0.009   0.000   0.000  -0.010  -0.000   0.000  -0.000  -0.000   0.000   0.000  -0.000  -0.000   0.000   0.000
  0.000   0.000   0.000   0.000  -0.000  -0.000   2.279   0.000   0.000  -0.000   0.000  -1.015   0.000   0.000  -0.000   0.000
  0.000   0.000   0.000  -0.000   0.000   0.000   0.000   1.794  -0.000  -0.000   0.000   0.000  -0.616  -0.000   0.000  -0.000
  0.000   0.000   0.000   0.000   0.000  -0.000   0.000  -0.000   2.600   0.000   0.086   0.000  -0.000  -1.101   0.000  -0.092
  0.000   0.000   0.000  -0.000   0.000  -0.000  -0.000  -0.000   0.000   2.245   0.000   0.000   0.000   0.000  -0.995   0.000
  0.000  -0.000   0.000   0.000   0.000   0.000   0.000   0.000   0.086   0.000   2.487  -0.000  -0.000  -0.092   0.000  -0.986
 -0.000   0.000   0.000  -0.000   0.000   0.000  -1.015   0.000   0.000   0.000  -0.000   0.244   0.000  -0.000  -0.000   0.000
 -0.000  -0.000  -0.000   0.000   0.000  -0.000   0.000  -0.616  -0.000   0.000  -0.000   0.000  -0.078   0.000  -0.000  -0.000
  0.000  -0.000   0.000   0.000  -0.000  -0.000   0.000  -0.000  -1.101   0.000  -0.092  -0.000   0.000   0.310  -0.000   0.104
  0.000   0.000  -0.000   0.000  -0.000   0.000  -0.000   0.000   0.000  -0.995   0.000  -0.000  -0.000  -0.000   0.231   0.000
  0.000   0.000   0.000   0.000  -0.000   0.000   0.000  -0.000  -0.092   0.000  -0.986   0.000  -0.000   0.104   0.000   0.184
  0.000  -0.000   0.000   0.000  -0.000   0.000   0.000   0.000  -0.029  -0.000   0.047   0.000   0.000   0.030  -0.000  -0.050
 -0.000   0.000   0.000  -0.000  -0.000   0.000   0.000  -0.000   0.003   0.000  -0.006   0.000   0.000  -0.001   0.000   0.002


------------------------ aborting loop because EDIFF is reached ----------------------------------------





 total charge

# of ion       s       p       d       tot
------------------------------------------
    1        0.382   6.397   6.114  12.893
    2        0.382   6.397   6.113  12.892
    3        0.382   6.397   6.114  12.893
    4        0.382   6.398   6.114  12.893
    5        0.381   6.397   6.113  12.892
    6        0.381   6.397   6.113  12.892
    7        0.382   6.397   6.114  12.893
    8        0.382   6.397   6.113  12.892
    9        0.382   6.397   6.114  12.893
   10        0.826   0.854   8.084   9.764
   11        0.826   0.853   8.084   9.763
   12        0.826   0.853   8.084   9.763
--------------------------------------------------
tot          5.912  60.134  79.274 145.320



 magnetization (x)

# of ion       s       p       d       tot
------------------------------------------
    1       -0.004  -0.015   2.394   2.376
    2       -0.004  -0.015   2.394   2.375
    3       -0.004  -0.015   2.394   2.376
    4       -0.004  -0.015   2.393   2.374
    5       -0.004  -0.015   2.401   2.382
    6       -0.004  -0.015   2.401   2.382
    7       -0.004  -0.015   2.394   2.376
    8       -0.004  -0.015   2.394   2.375
    9       -0.004  -0.015   2.394   2.376
   10       -0.038  -0.099   0.343   0.206
   11       -0.038  -0.099   0.347   0.211
   12       -0.038  -0.099   0.347   0.211
--------------------------------------------------
tot         -0.148  -0.430  22.597  22.019
 
    CHARGE:  cpu time      0.1338: real time      0.1345
    FORLOC:  cpu time      0.0021: real time      0.0026
    FORNL :  cpu time      0.6505: real time      0.6552
    STRESS:  cpu time      3.9285: real time      3.9634
    FORCOR:  cpu time      0.0195: real time      0.0196
    FORHAR:  cpu time      0.0025: real time      0.0025
    MIXING:  cpu time      0.0131: real time      0.0132
    OFIELD:  cpu time      0.0016: real time      0.0018

  FORCE on cell =-STRESS in cart. coord.  units (eV):
  Direction    XX          YY          ZZ          XY          YZ          ZX
  --------------------------------------------------------------------------------------
  Alpha Z  1224.38942  1224.38942  1224.38942
  Ewald   -6267.21615 -6267.21615 -6267.29464     0.00000    -0.00000    -0.00000
  Hartree  1769.18069  1769.18069  1768.90282    -0.00000    -0.00000    -0.00000
  E(xc)    -947.93645  -947.93645  -947.93770     0.00000     0.00000    -0.00000
  Local    1288.17842  1288.17842  1288.83362     0.00000    -0.00000     0.00000
  n-local  -190.63641  -203.07355  -197.05258    16.79961    -0.10754    -0.29680
  augment  1434.49810  1434.49810  1434.39145    -0.00000     0.00000     0.00000
  Kinetic  1723.64307  1710.74423  1717.12616     1.08181     0.54982    -0.00916
  Fock        0.00000     0.00000     0.00000     0.00000     0.00000     0.00000
  -------------------------------------------------------------------------------------
  Total      21.43270    21.43270    21.35855     0.00000     0.00000    -0.00000
  in kB     247.04312   247.04312   246.18833     0.00000     0.00000    -0.00000
  external pressure =      246.76 kB  Pullay stress =        0.00 kB


 VOLUME and BASIS-vectors are now :
 -----------------------------------------------------------------------------
  energy-cutoff  :      520.00
  volume of cell :      139.00
      direct lattice vectors                 reciprocal lattice vectors
     3.591608410  0.000000000  0.000000000     0.278426790  0.000000000  0.000000000
     0.000000000  3.591608410  0.000000000     0.000000000  0.278426790  0.000000000
     0.000000000  0.000000000 10.775485346     0.000000000  0.000000000  0.092803244

  length of vectors
     3.591608410  3.591608410 10.775485346     0.278426790  0.278426790  0.092803244


 FORCES acting on ions
    electron-ion (+dipol)            ewald-force                    non-local-force                 convergence-correction
 -----------------------------------------------------------------------------------------------
   -.330E-13 0.786E-12 -.164E+01   0.352E-13 0.348E-13 0.162E+01   -.330E-20 -.180E-21 -.182E-03   -.282E-13 0.763E-14 0.212E-01
   -.332E-13 0.103E-11 -.628E-12   0.120E-13 0.174E-14 -.341E-12   0.239E-25 0.131E-24 0.459E-25   -.317E-13 0.128E-13 0.612E-12
   -.334E-13 0.129E-11 0.164E+01   0.169E-13 -.241E-14 -.162E+01   -.413E-20 -.566E-21 0.182E-03   -.312E-13 0.872E-15 -.212E-01
   0.101E-11 0.781E-11 0.555E-11   -.809E-14 0.720E-14 0.114E-12   0.457E-25 -.764E-25 0.332E-25   -.152E-12 0.768E-14 -.495E-12
   0.101E-11 -.447E-11 -.189E+01   -.173E-13 -.141E-13 0.187E+01   -.983E-22 0.182E-20 0.549E-02   -.155E-12 0.271E-14 0.157E-01
   0.101E-11 -.390E-11 0.189E+01   0.750E-13 -.568E-15 -.187E+01   0.103E-21 0.293E-21 -.549E-02   -.151E-12 0.433E-15 -.157E-01
   0.101E-11 -.565E-13 -.164E+01   0.422E-14 0.460E-14 0.162E+01   0.444E-21 0.137E-21 -.182E-03   -.173E-12 -.306E-13 0.212E-01
   0.101E-11 -.571E-13 0.201E-11   -.497E-14 0.210E-13 -.568E-13   -.566E-25 -.920E-26 0.656E-25   -.177E-12 -.328E-13 0.599E-12
   0.101E-11 -.577E-13 0.164E+01   -.290E-13 0.106E-14 -.162E+01   -.395E-21 0.655E-21 0.182E-03   -.169E-12 -.392E-13 -.212E-01
   -.355E-13 -.415E-13 0.362E-12   -.802E-14 0.343E-14 0.114E-12   -.307E-25 -.264E-25 -.130E-24   0.371E-13 -.119E-13 -.416E-12
   -.359E-13 -.408E-13 -.107E+01   0.701E-16 -.454E-14 0.106E+01   0.161E-19 0.277E-20 -.295E-02   0.381E-13 -.119E-13 0.115E-01
   -.360E-13 -.415E-13 0.107E+01   -.612E-13 0.550E-14 -.106E+01   -.595E-20 -.409E-20 0.295E-02   0.360E-13 -.113E-13 -.115E-01
 -----------------------------------------------------------------------------------------------
   0.586E-11 0.223E-11 0.119E-10   0.147E-13 0.577E-13 -.844E-14   0.283E-20 0.836E-21 0.000E+00   -.956E-12 -.106E-12 -.985E-14
 
 
 POSITION                                       TOTAL-FORCE (eV/Angst)
 -----------------------------------------------------------------------------------
      0.00000      1.79580      1.79530        -0.000000      0.000000      0.003338
      0.00000      1.79580      5.38774        -0.000000      0.000000     -0.000000
      0.00000      1.79580      8.98018        -0.000000     -0.000000     -0.003338
      1.79580      1.79580      0.00000         0.000000     -0.000000     -0.000000
      1.79580      1.79580      3.59094        -0.000000      0.000000     -0.000904
      1.79580      1.79580      7.18455         0.000000      0.000000      0.000904
      1.79580      0.00000      1.79530        -0.000000      0.000000      0.003338
      1.79580      0.00000      5.38774         0.000000      0.000000     -0.000000
      1.79580      0.00000      8.98018         0.000000      0.000000     -0.003338
      0.00000      0.00000      0.00000        -0.000000      0.000000     -0.000000
      0.00000      0.00000      3.59149        -0.000000      0.000000     -0.006686
      0.00000      0.00000      7.18399         0.000000      0.000000      0.006686
 -----------------------------------------------------------------------------------
    total drift:                                0.000000      0.000000      0.000000


--------------------------------------------------------------------------------------------------------



  FREE ENERGIE OF THE ION-ELECTRON SYSTEM (eV)
  ---------------------------------------------------
  free  energy   TOTEN  =       -92.25319665 eV

  energy  without entropy=      -92.25319665  energy(sigma->0) =      -92.25319665
 


--------------------------------------------------------------------------------------------------------


    POTLOK:  cpu time      0.0366: real time      0.0370


--------------------------------------------------------------------------------------------------------


     LOOP+:  cpu time    196.4122: real time    198.5035
 -----------------------------------------------------------------------------
|                                                                             |
|           W    W    AA    RRRRR   N    N  II  N    N   GGGG   !!!           |
|           W    W   A  A   R    R  NN   N  II  NN   N  G    G  !!!           |
|           W    W  A    A  R    R  N N  N  II  N N  N  G       !!!           |
|           W WW W  AAAAAA  RRRRR   N  N N  II  N  N N  G  GGG   !            |
|           WW  WW  A    A  R   R   N   NN  II  N   NN  G    G                |
|           W    W  A    A  R    R  N    N  II  N    N   GGGG   !!!           |
|                                                                             |
|     Tetrahedron method does not include variations of the Fermi             |
|     occupations, so forces and stress will be inaccurate. We suggest        |
|     using a different smearing scheme ISMEAR = 1 or 2 for metals in         |
|     relaxations.                                                            |
|                                                                             |
 -----------------------------------------------------------------------------

    4ORBIT:  cpu time      0.0000: real time      0.0000



 total charge

# of ion       s       p       d       tot
------------------------------------------
    1        0.382   6.397   6.114  12.893
    2        0.382   6.397   6.113  12.892
    3        0.382   6.397   6.114  12.893
    4        0.382   6.398   6.114  12.893
    5        0.381   6.397   6.113  12.892
    6        0.381   6.397   6.113  12.892
    7        0.382   6.397   6.114  12.893
    8        0.382   6.397   6.113  12.892
    9        0.382   6.397   6.114  12.893
   10        0.826   0.854   8.084   9.764
   11        0.826   0.853   8.084   9.763
   12        0.826   0.853   8.084   9.763
--------------------------------------------------
tot          5.912  60.134  79.274 145.320



 magnetization (x)

# of ion       s       p       d       tot
------------------------------------------
    1       -0.004  -0.015   2.394   2.376
    2       -0.004  -0.015   2.394   2.375
    3       -0.004  -0.015   2.394   2.376
    4       -0.004  -0.015   2.393   2.374
    5       -0.004  -0.015   2.401   2.382
    6       -0.004  -0.015   2.401   2.382
    7       -0.004  -0.015   2.394   2.376
    8       -0.004  -0.015   2.394   2.375
    9       -0.004  -0.015   2.394   2.376
   10       -0.038  -0.099   0.343   0.206
   11       -0.038  -0.099   0.347   0.211
   12       -0.038  -0.099   0.347   0.211
--------------------------------------------------
tot         -0.148  -0.430  22.597  22.019
 
 BZINTS: Fermi energy:   11.344853;  156.000000 electrons
         Band energy:-0.139395E+04;  BLOECHL correction:   -0.065628

 total amount of memory used by VASP MPI-rank0   172792. kBytes
=======================================================================

   base      :      30000. kBytes
   nonl-proj :      92073. kBytes
   fftplans  :        848. kBytes
   grid      :       6490. kBytes
   one-center:        373. kBytes
   wavefun   :      43008. kBytes
 
  
  
 General timing and accounting informations for this job:
 ========================================================
  
                  Total CPU time used (sec):      214.368
                            User time (sec):      206.110
                          System time (sec):        8.258
                         Elapsed time (sec):      222.369
  
                   Maximum memory used (kb):      865396.
                   Average memory used (kb):          N/A
  
                          Minor page faults:       196518
                          Major page faults:          127
                 Voluntary context switches:         7477
