 vasp.6.4.3 19Mar24 (build Mar 26 2024 14:05:37) complex                        
  
 executed on             LinuxIFC date 2024.12.16  09:10:40
 running  128 mpi-ranks, on    1 nodes
 distrk:  each k-point on   32 cores,    4 groups
 distr:  one band on NCORE=   1 cores,   32 groups


--------------------------------------------------------------------------------------------------------


 INCAR:
   ALGO = All
   EDIFF = 1e-06
   EDIFFG = -0.01
   ENCUT = 520
   GGA = Pe
   IBRION = 2
   ISIF = 4
   ISMEAR = 1
   ISPIN = 2
   KPAR = 4
   LCHARG = True
   LORBIT = 11
   LREAL = False
   LWAVE = False
   MAGMOM = 1*2.482 1*2.488 1*2.482 1*2.487 2*2.479 1*2.482 1*2.488 1*2.482 1*0.244 2*0.245
   NELM = 200
   NSW = 100
   PREC = Accurate
   SIGMA = 0.2

 POTCAR:    PAW_PBE Fe_pv 02Aug2007               
 POTCAR:    PAW_PBE Pt 04Feb2005                  
 -----------------------------------------------------------------------------
|                                                                             |
|           W    W    AA    RRRRR   N    N  II  N    N   GGGG   !!!           |
|           W    W   A  A   R    R  NN   N  II  NN   N  G    G  !!!           |
|           W    W  A    A  R    R  N N  N  II  N N  N  G       !!!           |
|           W WW W  AAAAAA  RRRRR   N  N N  II  N  N N  G  GGG   !            |
|           WW  WW  A    A  R   R   N   NN  II  N   NN  G    G                |
|           W    W  A    A  R    R  N    N  II  N    N   GGGG   !!!           |
|                                                                             |
|     For optimal performance we recommend to set                             |
|       NCORE = 2 up to number-of-cores-per-socket                            |
|     NCORE specifies how many cores store one orbital (NPAR=cpu/NCORE).      |
|     This setting can greatly improve the performance of VASP for DFT.       |
|     The default, NCORE=1 might be grossly inefficient on modern             |
|     multi-core architectures or massively parallel machines. Do your        |
|     own testing! More info at https://www.vasp.at/wiki/index.php/NCORE      |
|     Unfortunately you need to use the default for GW and RPA                |
|     calculations (for HF NCORE is supported but not extensively tested      |
|     yet).                                                                   |
|                                                                             |
 -----------------------------------------------------------------------------

 POTCAR:    PAW_PBE Fe_pv 02Aug2007               
   SHA256 =  5d22e414b1f82158bf2c7ecb8b97b28fd0923e48cadc1c3bf74d524558f5dd32 Fe_pv/POTCAR          
   COPYR  = (c) Copyright 02Aug2007 Georg Kresse                                                    
   COPYR  = This file is part of the software VASP. Any use, copying, and all other rights are regul
   COPYR  = If you do not have a valid VASP license, you may not use, copy or distribute this file. 
   VRHFIN =Fe:  3pd7s1                                                                              
   LEXCH  = PE                                                                                      
   EATOM  =  2457.4239 eV,  180.6156 Ry                                                             
                                                                                                    
   TITEL  = PAW_PBE Fe_pv 02Aug2007                                                                 
   LULTRA =        F    use ultrasoft PP ?                                                          
   IUNSCR =        1    unscreen: 0-lin 1-nonlin 2-no                                               
   RPACOR =    1.750    partial core radius                                                         
   POMASS =   55.847; ZVAL   =   14.000    mass and valenz                                          
   RCORE  =    2.200    outmost cutoff radius                                                       
   RWIGS  =    2.200; RWIGS  =    1.164    wigner-seitz radius (au A)                               
   ENMAX  =  293.238; ENMIN  =  219.928 eV                                                          
   ICORE  =        3    local potential                                                             
   LCOR   =        T    correct aug charges                                                         
   LPAW   =        T    paw PP                                                                      
   EAUG   =  578.342                                                                                
   DEXC   =    0.000                                                                                
   RMAX   =    2.249    core radius for proj-oper                                                   
   RAUG   =    1.300    factor for augmentation sphere                                              
   RDEP   =    2.296    radius for radial grids                                                     
   RDEPT  =    1.766    core radius for aug-charge                                                  
                                                                                                    
   Atomic configuration                                                                             
    8 entries                                                                                       
     n  l   j            E        occ.                                                              
     1  0  0.50     -6993.8440   2.0000                                                             
     2  0  0.50      -814.6047   2.0000                                                             
     2  1  1.50      -693.3689   6.0000                                                             
     3  0  0.50       -89.4732   2.0000                                                             
     3  1  1.50       -55.6373   6.0000                                                             
     3  2  2.50        -3.8151   7.0000                                                             
     4  0  0.50        -4.2551   1.0000                                                             
     4  3  2.50        -1.3606   0.0000                                                             
   Description                                                                                      
     l       E           TYP  RCUT    TYP  RCUT                                                     
     1    -55.6372668     23  2.000                                                                 
     1     -5.4423304     23  2.000                                                                 
     2     -3.8151096     23  2.200                                                                 
     2     -5.1756922     23  2.200                                                                 
     0     -4.2550951     23  2.200                                                                 
     0     27.2116520     23  2.200                                                                 
     3     -1.3605826     23  2.200                                                                 
  local pseudopotential read in
  partial core-charges read in
  partial kinetic energy density read in
  atomic valenz-charges read in
  non local Contribution for L=           1  read in
    real space projection operators read in
  non local Contribution for L=           1  read in
    real space projection operators read in
  non local Contribution for L=           2  read in
    real space projection operators read in
  non local Contribution for L=           2  read in
    real space projection operators read in
  non local Contribution for L=           0  read in
    real space projection operators read in
  non local Contribution for L=           0  read in
    real space projection operators read in
    PAW grid and wavefunctions read in
 
   number of l-projection  operators is LMAX  =           6
   number of lm-projection operators is LMMAX =          18
 
 POTCAR:    PAW_PBE Pt 04Feb2005                  
   SHA256 =  3ed90460adef76debcff1cfb73ee1349b515b1a3db03439735b44de3a8db7dc8 Pt/POTCAR             
   COPYR  = (c) Copyright 04Feb2005 Georg Kresse                                                    
   COPYR  = This file is part of the software VASP. Any use, copying, and all other rights are regul
   COPYR  = If you do not have a valid VASP license, you may not use, copy or distribute this file. 
   VRHFIN =Pt: s1d9                                                                                 
   LEXCH  = PE                                                                                      
   EATOM  =   729.1176 eV,   53.5886 Ry                                                             
                                                                                                    
   TITEL  = PAW_PBE Pt 04Feb2005                                                                    
   LULTRA =        F    use ultrasoft PP ?                                                          
   IUNSCR =        1    unscreen: 0-lin 1-nonlin 2-no                                               
   RPACOR =    2.330    partial core radius                                                         
   POMASS =  195.080; ZVAL   =   10.000    mass and valenz                                          
   RCORE  =    2.600    outmost cutoff radius                                                       
   RWIGS  =    2.750; RWIGS  =    1.455    wigner-seitz radius (au A)                               
   ENMAX  =  230.283; ENMIN  =  172.712 eV                                                          
   ICORE  =        3    local potential                                                             
   LCOR   =        T    correct aug charges                                                         
   LPAW   =        T    paw PP                                                                      
   EAUG   =  358.966                                                                                
   DEXC   =    0.000                                                                                
   RMAX   =    2.658    core radius for proj-oper                                                   
   RAUG   =    1.300    factor for augmentation sphere                                              
   RDEP   =    2.761    radius for radial grids                                                     
   RDEPT  =    2.203    core radius for aug-charge                                                  
                                                                                                    
   Atomic configuration                                                                             
   16 entries                                                                                       
     n  l   j            E        occ.                                                              
     1  0  0.50    -78401.1885   2.0000                                                             
     2  0  0.50    -13770.7750   2.0000                                                             
     2  1  1.50    -11931.0468   6.0000                                                             
     3  0  0.50     -3234.7234   2.0000                                                             
     3  1  1.50     -2699.2216   6.0000                                                             
     3  2  2.50     -2119.5714  10.0000                                                             
     4  0  0.50      -695.1528   2.0000                                                             
     4  1  1.50      -519.6034   6.0000                                                             
     4  2  2.50      -306.6786  10.0000                                                             
     4  3  3.50       -70.1041  14.0000                                                             
     5  0  0.50      -101.7747   2.0000                                                             
     5  1  1.50       -55.9873   6.0000                                                             
     5  2  2.50        -6.1423   9.0000                                                             
     6  0  0.50        -5.6573   1.0000                                                             
     6  1  1.50        -6.8029   0.0000                                                             
     5  3  2.50        -1.3606   0.0000                                                             
   Description                                                                                      
     l       E           TYP  RCUT    TYP  RCUT                                                     
     2     -6.1423404     23  2.500                                                                 
     2     -7.5029230     23  2.500                                                                 
     0     -5.6573207     23  2.500                                                                 
     0      0.7416693     23  2.500                                                                 
     1     -2.7211652     23  2.600                                                                 
     1     20.4087390     23  2.600                                                                 
     3     -1.3605826     23  2.500                                                                 
  local pseudopotential read in
  partial core-charges read in
  partial kinetic energy density read in
  atomic valenz-charges read in
  non local Contribution for L=           2  read in
    real space projection operators read in
  non local Contribution for L=           2  read in
    real space projection operators read in
  non local Contribution for L=           0  read in
    real space projection operators read in
  non local Contribution for L=           0  read in
    real space projection operators read in
  non local Contribution for L=           1  read in
    real space projection operators read in
  non local Contribution for L=           1  read in
    real space projection operators read in
    PAW grid and wavefunctions read in
 
   number of l-projection  operators is LMAX  =           6
   number of lm-projection operators is LMMAX =          18
 
  PAW_PBE Fe_pv 02Aug2007               :
 energy of atom  1       EATOM=-2457.4239
 kinetic energy error for atom=    0.0062 (will be added to EATOM!!)
  PAW_PBE Pt 04Feb2005                  :
 energy of atom  2       EATOM= -729.1176
 kinetic energy error for atom=    0.0032 (will be added to EATOM!!)
 
 
 POSCAR: Fe9 Pt3
  positions in direct lattice
  No initial velocities read in


 exchange-correlation table for PE
   RHO(1)=    0.500       N(1)  =     2000
   RHO(2)=  100.500       N(2)  =     4000
 


--------------------------------------------------------------------------------------------------------


 ion  position               nearest neighbor table
   1  0.000  0.500  0.167-   7 2.54   7 2.54   7 2.54   7 2.54   5 2.54   5 2.54  11 2.54  11 2.54
                             4 2.54  10 2.54  10 2.54   4 2.54
   2  0.000  0.500  0.500-   8 2.54   8 2.54   8 2.54   8 2.54  11 2.54  12 2.54  12 2.54  11 2.54
                             5 2.54   6 2.54   5 2.54   6 2.54
   3  0.000  0.500  0.833-   9 2.54   9 2.54   9 2.54   9 2.54   6 2.54   6 2.54  12 2.54  12 2.54
                             4 2.54  10 2.54  10 2.54   4 2.54
   4  0.500  0.500  0.000-  10 2.54  10 2.54  10 2.54  10 2.54   1 2.54   7 2.54   9 2.54   3 2.54
                             1 2.54   3 2.54   7 2.54   9 2.54
   5  0.500  0.500  0.333-  11 2.54  11 2.54  11 2.54  11 2.54   7 2.54   1 2.54   1 2.54   7 2.54
                             8 2.54   2 2.54   8 2.54   2 2.54
   6  0.500  0.500  0.667-  12 2.54  12 2.54  12 2.54  12 2.54   9 2.54   3 2.54   3 2.54   9 2.54
                             2 2.54   8 2.54   2 2.54   8 2.54
   7  0.500  0.000  0.167-   1 2.54   1 2.54   1 2.54   1 2.54   5 2.54   5 2.54  11 2.54  11 2.54
                            10 2.54  10 2.54   4 2.54   4 2.54
   8  0.500  0.000  0.500-   2 2.54   2 2.54   2 2.54   2 2.54  12 2.54  11 2.54  12 2.54  11 2.54
                             6 2.54   5 2.54   5 2.54   6 2.54
   9  0.500  0.000  0.833-   3 2.54   3 2.54   3 2.54   3 2.54   6 2.54   6 2.54  12 2.54  12 2.54
                            10 2.54  10 2.54   4 2.54   4 2.54
  10  0.000  0.000  0.000-   4 2.54   4 2.54   4 2.54   4 2.54   9 2.54   1 2.54   3 2.54   3 2.54
                             1 2.54   7 2.54   9 2.54   7 2.54
  11  0.000  0.000  0.333-   5 2.54   5 2.54   5 2.54   5 2.54   1 2.54   7 2.54   7 2.54   1 2.54
                             2 2.54   2 2.54   8 2.54   8 2.54
  12  0.000  0.000  0.667-   6 2.54   6 2.54   6 2.54   6 2.54   3 2.54   9 2.54   9 2.54   3 2.54
                             2 2.54   8 2.54   8 2.54   2 2.54
 
  LATTYP: Found a simple tetragonal cell.
 ALAT       =     3.5913163809
 C/A-ratio  =     3.0009157362
  
  Lattice vectors:
  
 A1 = (   3.5913163809,   0.0000000000,   0.0000000000)
 A2 = (   0.0000000000,   3.5913163809,   0.0000000000)
 A3 = (   0.0000000000,   0.0000000000,  10.7772378411)


Analysis of symmetry for initial positions (statically):
=====================================================================
 Subroutine PRICEL returns:
 Original cell was already a primitive cell.
 

 Routine SETGRP: Setting up the symmetry group for a 
 simple tetragonal supercell.


 Subroutine GETGRP returns: Found 16 space group operations
 (whereof 16 operations were pure point group operations)
 out of a pool of 16 trial point group operations.


The static configuration has the point symmetry D_4h.


Analysis of symmetry for dynamics (positions and initial velocities):
=====================================================================
 Subroutine PRICEL returns:
 Original cell was already a primitive cell.
 

 Routine SETGRP: Setting up the symmetry group for a 
 simple tetragonal supercell.


 Subroutine GETGRP returns: Found 16 space group operations
 (whereof 16 operations were pure point group operations)
 out of a pool of 16 trial point group operations.


The dynamic configuration has the point symmetry D_4h.


Analysis of structural, dynamic, and magnetic symmetry:
=====================================================================
 Subroutine PRICEL returns:
 Original cell was already a primitive cell.
 

 Routine SETGRP: Setting up the symmetry group for a 
 simple tetragonal supercell.


 Subroutine GETGRP returns: Found 16 space group operations
 (whereof 16 operations were pure point group operations)
 out of a pool of 16 trial point group operations.


The overall configuration has the point symmetry D_4h.


 Subroutine INISYM returns: Found 16 space group operations
 (whereof 16 operations are pure point group operations),
 and found     1 'primitive' translations


----------------------------------------------------------------------------------------

                                     Primitive cell                                     

  volume of cell :     139.0000

  direct lattice vectors                    reciprocal lattice vectors
     3.591316381  0.000000000  0.000000000     0.278449430  0.000000000  0.000000000
     0.000000000  3.591316381  0.000000000     0.000000000  0.278449430  0.000000000
     0.000000000  0.000000000 10.777237841     0.000000000  0.000000000  0.092788154

  length of vectors
     3.591316381  3.591316381 10.777237841     0.278449430  0.278449430  0.092788154

  position of ions in fractional coordinates (direct lattice)
     0.000000000  0.500000000  0.166676517
     0.000000000  0.500000000  0.500000000
     0.000000000  0.500000000  0.833323483
     0.500000000  0.500000000  0.000000000
     0.500000000  0.500000000  0.333293006
     0.500000000  0.500000000  0.666706994
     0.500000000  0.000000000  0.166676517
     0.500000000  0.000000000  0.500000000
     0.500000000  0.000000000  0.833323483
     0.000000000  0.000000000  0.000000000
     0.000000000  0.000000000  0.333309487
     0.000000000  0.000000000  0.666690513

  ion indices of the primitive-cell ions
   primitive index   ion index
                 1           1
                 2           2
                 3           3
                 4           4
                 5           5
                 6           6
                 7           7
                 8           8
                 9           9
                10          10
                11          11
                12          12

----------------------------------------------------------------------------------------

 
 
 KPOINTS: pymatgen with grid density = 8800 / numb

Automatic generation of k-mesh.
 Grid dimensions read from file:
 generate k-points for:   13   13    4

 Generating k-lattice:

  Cartesian coordinates                     Fractional coordinates (reciprocal lattice)
     0.021419187  0.000000000  0.000000000     0.076923077  0.000000000  0.000000000
     0.000000000  0.021419187  0.000000000     0.000000000  0.076923077  0.000000000
     0.000000000  0.000000000  0.023197038     0.000000000  0.000000000  0.250000000

  Length of vectors
     0.021419187  0.021419187  0.023197038

  Shift w.r.t. Gamma in fractional coordinates (k-lattice)
     0.000000000  0.000000000  0.000000000

 
 Subroutine IBZKPT returns following result:
 ===========================================
 
 Found     84 irreducible k-points:
 
 Following reciprocal coordinates:
            Coordinates               Weight
  0.000000  0.000000  0.000000      1.000000
  0.076923  0.000000  0.000000      4.000000
  0.153846  0.000000  0.000000      4.000000
  0.230769  0.000000  0.000000      4.000000
  0.307692  0.000000  0.000000      4.000000
  0.384615  0.000000  0.000000      4.000000
  0.461538  0.000000  0.000000      4.000000
  0.076923  0.076923  0.000000      4.000000
  0.153846  0.076923  0.000000      8.000000
  0.230769  0.076923  0.000000      8.000000
  0.307692  0.076923  0.000000      8.000000
  0.384615  0.076923  0.000000      8.000000
  0.461538  0.076923  0.000000      8.000000
  0.153846  0.153846  0.000000      4.000000
  0.230769  0.153846  0.000000      8.000000
  0.307692  0.153846  0.000000      8.000000
  0.384615  0.153846  0.000000      8.000000
  0.461538  0.153846  0.000000      8.000000
  0.230769  0.230769  0.000000      4.000000
  0.307692  0.230769  0.000000      8.000000
  0.384615  0.230769  0.000000      8.000000
  0.461538  0.230769  0.000000      8.000000
  0.307692  0.307692  0.000000      4.000000
  0.384615  0.307692  0.000000      8.000000
  0.461538  0.307692  0.000000      8.000000
  0.384615  0.384615  0.000000      4.000000
  0.461538  0.384615  0.000000      8.000000
  0.461538  0.461538  0.000000      4.000000
  0.000000  0.000000  0.250000      2.000000
  0.076923  0.000000  0.250000      8.000000
  0.153846  0.000000  0.250000      8.000000
  0.230769  0.000000  0.250000      8.000000
  0.307692  0.000000  0.250000      8.000000
  0.384615  0.000000  0.250000      8.000000
  0.461538  0.000000  0.250000      8.000000
  0.076923  0.076923  0.250000      8.000000
  0.153846  0.076923  0.250000     16.000000
  0.230769  0.076923  0.250000     16.000000
  0.307692  0.076923  0.250000     16.000000
  0.384615  0.076923  0.250000     16.000000
  0.461538  0.076923  0.250000     16.000000
  0.153846  0.153846  0.250000      8.000000
  0.230769  0.153846  0.250000     16.000000
  0.307692  0.153846  0.250000     16.000000
  0.384615  0.153846  0.250000     16.000000
  0.461538  0.153846  0.250000     16.000000
  0.230769  0.230769  0.250000      8.000000
  0.307692  0.230769  0.250000     16.000000
  0.384615  0.230769  0.250000     16.000000
  0.461538  0.230769  0.250000     16.000000
  0.307692  0.307692  0.250000      8.000000
  0.384615  0.307692  0.250000     16.000000
  0.461538  0.307692  0.250000     16.000000
  0.384615  0.384615  0.250000      8.000000
  0.461538  0.384615  0.250000     16.000000
  0.461538  0.461538  0.250000      8.000000
  0.000000  0.000000  0.500000      1.000000
  0.076923  0.000000  0.500000      4.000000
  0.153846  0.000000  0.500000      4.000000
  0.230769  0.000000  0.500000      4.000000
  0.307692  0.000000  0.500000      4.000000
  0.384615  0.000000  0.500000      4.000000
  0.461538  0.000000  0.500000      4.000000
  0.076923  0.076923  0.500000      4.000000
  0.153846  0.076923  0.500000      8.000000
  0.230769  0.076923  0.500000      8.000000
  0.307692  0.076923  0.500000      8.000000
  0.384615  0.076923  0.500000      8.000000
  0.461538  0.076923  0.500000      8.000000
  0.153846  0.153846  0.500000      4.000000
  0.230769  0.153846  0.500000      8.000000
  0.307692  0.153846  0.500000      8.000000
  0.384615  0.153846  0.500000      8.000000
  0.461538  0.153846  0.500000      8.000000
  0.230769  0.230769  0.500000      4.000000
  0.307692  0.230769  0.500000      8.000000
  0.384615  0.230769  0.500000      8.000000
  0.461538  0.230769  0.500000      8.000000
  0.307692  0.307692  0.500000      4.000000
  0.384615  0.307692  0.500000      8.000000
  0.461538  0.307692  0.500000      8.000000
  0.384615  0.384615  0.500000      4.000000
  0.461538  0.384615  0.500000      8.000000
  0.461538  0.461538  0.500000      4.000000
 
 Following cartesian coordinates:
            Coordinates               Weight
  0.000000  0.000000  0.000000      1.000000
  0.021419  0.000000  0.000000      4.000000
  0.042838  0.000000  0.000000      4.000000
  0.064258  0.000000  0.000000      4.000000
  0.085677  0.000000  0.000000      4.000000
  0.107096  0.000000  0.000000      4.000000
  0.128515  0.000000  0.000000      4.000000
  0.021419  0.021419  0.000000      4.000000
  0.042838  0.021419  0.000000      8.000000
  0.064258  0.021419  0.000000      8.000000
  0.085677  0.021419  0.000000      8.000000
  0.107096  0.021419  0.000000      8.000000
  0.128515  0.021419  0.000000      8.000000
  0.042838  0.042838  0.000000      4.000000
  0.064258  0.042838  0.000000      8.000000
  0.085677  0.042838  0.000000      8.000000
  0.107096  0.042838  0.000000      8.000000
  0.128515  0.042838  0.000000      8.000000
  0.064258  0.064258  0.000000      4.000000
  0.085677  0.064258  0.000000      8.000000
  0.107096  0.064258  0.000000      8.000000
  0.128515  0.064258  0.000000      8.000000
  0.085677  0.085677  0.000000      4.000000
  0.107096  0.085677  0.000000      8.000000
  0.128515  0.085677  0.000000      8.000000
  0.107096  0.107096  0.000000      4.000000
  0.128515  0.107096  0.000000      8.000000
  0.128515  0.128515  0.000000      4.000000
  0.000000  0.000000  0.023197      2.000000
  0.021419  0.000000  0.023197      8.000000
  0.042838  0.000000  0.023197      8.000000
  0.064258  0.000000  0.023197      8.000000
  0.085677  0.000000  0.023197      8.000000
  0.107096  0.000000  0.023197      8.000000
  0.128515  0.000000  0.023197      8.000000
  0.021419  0.021419  0.023197      8.000000
  0.042838  0.021419  0.023197     16.000000
  0.064258  0.021419  0.023197     16.000000
  0.085677  0.021419  0.023197     16.000000
  0.107096  0.021419  0.023197     16.000000
  0.128515  0.021419  0.023197     16.000000
  0.042838  0.042838  0.023197      8.000000
  0.064258  0.042838  0.023197     16.000000
  0.085677  0.042838  0.023197     16.000000
  0.107096  0.042838  0.023197     16.000000
  0.128515  0.042838  0.023197     16.000000
  0.064258  0.064258  0.023197      8.000000
  0.085677  0.064258  0.023197     16.000000
  0.107096  0.064258  0.023197     16.000000
  0.128515  0.064258  0.023197     16.000000
  0.085677  0.085677  0.023197      8.000000
  0.107096  0.085677  0.023197     16.000000
  0.128515  0.085677  0.023197     16.000000
  0.107096  0.107096  0.023197      8.000000
  0.128515  0.107096  0.023197     16.000000
  0.128515  0.128515  0.023197      8.000000
  0.000000  0.000000  0.046394      1.000000
  0.021419  0.000000  0.046394      4.000000
  0.042838  0.000000  0.046394      4.000000
  0.064258  0.000000  0.046394      4.000000
  0.085677  0.000000  0.046394      4.000000
  0.107096  0.000000  0.046394      4.000000
  0.128515  0.000000  0.046394      4.000000
  0.021419  0.021419  0.046394      4.000000
  0.042838  0.021419  0.046394      8.000000
  0.064258  0.021419  0.046394      8.000000
  0.085677  0.021419  0.046394      8.000000
  0.107096  0.021419  0.046394      8.000000
  0.128515  0.021419  0.046394      8.000000
  0.042838  0.042838  0.046394      4.000000
  0.064258  0.042838  0.046394      8.000000
  0.085677  0.042838  0.046394      8.000000
  0.107096  0.042838  0.046394      8.000000
  0.128515  0.042838  0.046394      8.000000
  0.064258  0.064258  0.046394      4.000000
  0.085677  0.064258  0.046394      8.000000
  0.107096  0.064258  0.046394      8.000000
  0.128515  0.064258  0.046394      8.000000
  0.085677  0.085677  0.046394      4.000000
  0.107096  0.085677  0.046394      8.000000
  0.128515  0.085677  0.046394      8.000000
  0.107096  0.107096  0.046394      4.000000
  0.128515  0.107096  0.046394      8.000000
  0.128515  0.128515  0.046394      4.000000
 


--------------------------------------------------------------------------------------------------------




 Dimension of arrays:
   k-points           NKPTS =     84   k-points in BZ     NKDIM =     84   number of bands    NBANDS=    128
   number of dos      NEDOS =    301   number of ions     NIONS =     12
   non local maximal  LDIM  =      6   non local SUM 2l+1 LMDIM =     18
   total plane-waves  NPLWV =  62720
   max r-space proj   IRMAX =      1   max aug-charges    IRDMAX=  27526
   dimension x,y,z NGX =    28 NGY =   28 NGZ =   80
   dimension x,y,z NGXF=    56 NGYF=   56 NGZF=  160
   support grid    NGXF=    56 NGYF=   56 NGZF=  160
   ions per type =               9   3
   NGX,Y,Z   is equivalent  to a cutoff of  12.96, 12.96, 12.34 a.u.
   NGXF,Y,Z  is equivalent  to a cutoff of  25.92, 25.92, 24.68 a.u.

 SYSTEM =  unknown system                          
 POSCAR =  Fe9 Pt3                                 

 Startparameter for this run:
   NWRITE =      2    write-flag & timer
   PREC   = accura    normal or accurate (medium, high low for compatibility)
   ISTART =      0    job   : 0-new  1-cont  2-samecut
   ICHARG =      2    charge: 1-file 2-atom 10-const
   ISPIN  =      2    spin polarized calculation?
   LNONCOLLINEAR =      F non collinear calculations
   LSORBIT =      F    spin-orbit coupling
   INIWAV =      1    electr: 0-lowe 1-rand  2-diag
   LASPH  =      F    aspherical Exc in radial PAW
 Electronic Relaxation 1
   ENCUT  =  520.0 eV  38.22 Ry    6.18 a.u.   6.68  6.68 20.04*2*pi/ulx,y,z
   ENINI  =  520.0     initial cutoff
   ENAUG  =  578.3 eV  augmentation charge cutoff
   NELM   =    200;   NELMIN=  2; NELMDL=  0     # of ELM steps 
   EDIFF  = 0.1E-05   stopping-criterion for ELM
   LREAL  =      F    real-space projection
   NLSPLINE    = F    spline interpolate recip. space projectors
   LCOMPAT=      F    compatible to vasp.4.4
   GGA_COMPAT  = T    GGA compatible to vasp.4.4-vasp.4.6
   LMAXPAW     = -100 max onsite density
   LMAXMIX     =    2 max onsite mixed and CHGCAR
   VOSKOWN=      0    Vosko Wilk Nusair interpolation
   ROPT   =    0.00000   0.00000
 Ionic relaxation
   EDIFFG = -.1E-01   stopping-criterion for IOM
   NSW    =    100    number of steps for IOM
   NBLOCK =      1;   KBLOCK =    100    inner block; outer block 
   IBRION =      2    ionic relax: 0-MD 1-quasi-New 2-CG
   NFREE  =      1    steps in history (QN), initial steepest desc. (CG)
   ISIF   =      4    stress and relaxation
   IWAVPR =     11    prediction:  0-non 1-charg 2-wave 3-comb
   ISYM   =      2    0-nonsym 1-usesym 2-fastsym
   LCORR  =      T    Harris-Foulkes like correction to forces

   POTIM  = 0.5000    time-step for ionic-motion
   TEIN   =    0.0    initial temperature
   TEBEG  =    0.0;   TEEND  =   0.0 temperature during run
   SMASS  =  -3.00    Nose mass-parameter (am)
   estimated Nose-frequenzy (Omega)   =  0.10E-29 period in steps = 0.13E+47 mass=  -0.295E-27a.u.
   SCALEE = 1.0000    scale energy and forces
   NPACO  =    256;   APACO  = 10.0  distance and # of slots for P.C.
   PSTRESS=    0.0 pullay stress

  Mass of Ions in am
   POMASS =  55.85195.08
  Ionic Valenz
   ZVAL   =  14.00 10.00
  Atomic Wigner-Seitz radii
   RWIGS  =  -1.00 -1.00
  virtual crystal weights 
   VCA    =   1.00  1.00
   NELECT =     156.0000    total number of electrons
   NUPDOWN=      -1.0000    fix difference up-down

 DOS related values:
   EMIN   =  10.00;   EMAX   =-10.00  energy-range for DOS
   EFERMI =   0.00;   METHOD = LEGACY      
   ISMEAR =     1;   SIGMA  =   0.20  broadening in eV -4-tet -1-fermi 0-gaus

 Electronic relaxation 2 (details)
   IALGO  =     58    algorithm
   LDIAG  =      T    sub-space diagonalisation (order eigenvalues)
   LSUBROT=      F    optimize rotation matrix (better conditioning)
   TURBO    =      0    0=normal 1=particle mesh
   IRESTART =      0    0=no restart 2=restart with 2 vectors
   NREBOOT  =      0    no. of reboots
   NMIN     =      0    reboot dimension
   EREF     =   0.00    reference energy to select bands
   IMIX   =      4    mixing-type and parameters
     AMIX     =   0.40;   BMIX     =  1.00
     AMIX_MAG =   1.60;   BMIX_MAG =  1.00
     AMIN     =   0.10
     WC   =   100.;   INIMIX=   1;  MIXPRE=   1;  MAXMIX= -45

 Intra band minimization:
   WEIMIN = 0.0010     energy-eigenvalue tresh-hold
   EBREAK =  0.20E-08  absolut break condition
   DEPER  =   0.30     relativ break condition  

   TIME   =   0.40     timestep for ELM

  volume/ion in A,a.u.               =      11.58        78.17
  Fermi-wavevector in a.u.,A,eV,Ry     =   1.701289  3.214970 39.380489  2.894384
  Thomas-Fermi vector in A             =   2.781269
 
 Write flags
   LWAVE        =      F    write WAVECAR
   LDOWNSAMPLE  =      F    k-point downsampling of WAVECAR
   LCHARG       =      T    write CHGCAR
   LVTOT        =      F    write LOCPOT, total local potential
   LVHAR        =      F    write LOCPOT, Hartree potential only
   WRT_POTENTIAL= false  ! write potential to hdf5 file
   LELF         =      F    write electronic localiz. function (ELF)
   LORBIT       =     11    0 simple, 1 ext, 2 COOP (PROOUT), +10 PAW based schemes


 Dipole corrections
   LMONO      =      F    monopole corrections only (constant potential shift)
   LDIPOL     =      F    correct potential (dipole corrections)
   IDIPOL     =      0    1-x, 2-y, 3-z, 4-all directions 
   EPSILON    =  1.0000000 bulk dielectric constant
   LVACPOTAV  =      F  vacuum potentials using an averaging scheme for the charge density
   VACPOTFLAT =  0.1000000 required flatness to determine vacuum potential
 Exchange correlation treatment:
   GGA     = PE    functional components
   XC_C    = 1    coefficients multiplying the functional components
   LIBXC   =     F    Libxc                    
   VOSKOWN =     0    Vosko Wilk Nusair interpolation
   LHFCALC =     F    Hartree Fock is set to
   LHFONE  =     F    Hartree Fock one center treatment
   AEXX    =    0.0000 exact exchange contribution

 Parameters of functionals:
   PE:
     No parameter
 
 Van der Waals corrections
   IVDW    =     0    specifies the selected vdW correction

 Linear response parameters
   LEPSILON=     F    determine dielectric tensor
   LRPA    =     F    only Hartree local field effects (RPA)
   LNABLA  =     F    use nabla operator in PAW spheres
   LVEL    =     F    velocity operator in full k-point grid
   CSHIFT  =0.1000    complex shift for real part using Kramers Kronig
   OMEGAMAX=  -1.0    maximum frequency
   DEG_THRESHOLD= 0.2000000E-02 threshold for treating states as degnerate
   RTIME   =   -0.100 relaxation time in fs
  (WPLASMAI=    0.000 imaginary part of plasma frequency in eV, 0.658/RTIME)
   DFIELD  = 0.0000000 0.0000000 0.0000000 field for delta impulse in time
 
  Optional k-point grid parameters
   LKPOINTS_OPT  =     F    use optional k-point grid
   KPOINTS_OPT_MODE=     1    mode for optional k-point grid
 
 Orbital magnetization related:
   ORBITALMAG=     F  switch on orbital magnetization
   LCHIMAG   =     F  perturbation theory with respect to B field
   DQ        =  0.001000  dq finite difference perturbation B field
   LLRAUG    =     F  two centre corrections for induced B field
   LBONE     =     F  B-component reconstruction in AE one-centre
   LVGVCALC  =     T  calculate vGv susceptibility
   LVGVAPPL  =     F  apply vGv susceptibility instead of pGv for G=0

 Random number generation:
   RANDOM_GENERATOR = DEFAULT
   PCG_SEED         = not used


--------------------------------------------------------------------------------------------------------


 conjugate gradient relaxation of ions
 charge density and potential will be updated during run
 spin polarized calculation
 Conjugate gradient for all bands (Freysoldt, et al. PRB 79, 241103 (2009))
 preconditioned conjugated gradient                                        
 perform sub-space diagonalisation
    before iterative eigenvector-optimisation
 modified Broyden-mixing scheme, WC =      100.0
 initial mixing is a Kerker type mixing with AMIX =  0.4000 and BMIX =      1.0000
 Hartree-type preconditioning will be used
 using additional bands           50
 reciprocal scheme for non local part
 use partial core corrections
 no Harris-corrections to forces 
 use gradient corrections 
 use of overlap-Matrix (Vanderbilt PP)
 Methfessel and Paxton  Order N= 1 SIGMA  =   0.20


--------------------------------------------------------------------------------------------------------


  energy-cutoff  :      520.00
  volume of cell :      139.00
      direct lattice vectors                 reciprocal lattice vectors
     3.591316381  0.000000000  0.000000000     0.278449430  0.000000000  0.000000000
     0.000000000  3.591316381  0.000000000     0.000000000  0.278449430  0.000000000
     0.000000000  0.000000000 10.777237841     0.000000000  0.000000000  0.092788154

  length of vectors
     3.591316381  3.591316381 10.777237841     0.278449430  0.278449430  0.092788154


 
 k-points in units of 2pi/SCALE and weight: pymatgen with grid density = 8800 / numb
   0.00000000  0.00000000  0.00000000       0.001
   0.02141919  0.00000000  0.00000000       0.006
   0.04283837  0.00000000  0.00000000       0.006
   0.06425756  0.00000000  0.00000000       0.006
   0.08567675  0.00000000  0.00000000       0.006
   0.10709593  0.00000000  0.00000000       0.006
   0.12851512  0.00000000  0.00000000       0.006
   0.02141919  0.02141919  0.00000000       0.006
   0.04283837  0.02141919  0.00000000       0.012
   0.06425756  0.02141919  0.00000000       0.012
   0.08567675  0.02141919  0.00000000       0.012
   0.10709593  0.02141919  0.00000000       0.012
   0.12851512  0.02141919  0.00000000       0.012
   0.04283837  0.04283837  0.00000000       0.006
   0.06425756  0.04283837  0.00000000       0.012
   0.08567675  0.04283837  0.00000000       0.012
   0.10709593  0.04283837  0.00000000       0.012
   0.12851512  0.04283837  0.00000000       0.012
   0.06425756  0.06425756  0.00000000       0.006
   0.08567675  0.06425756  0.00000000       0.012
   0.10709593  0.06425756  0.00000000       0.012
   0.12851512  0.06425756  0.00000000       0.012
   0.08567675  0.08567675  0.00000000       0.006
   0.10709593  0.08567675  0.00000000       0.012
   0.12851512  0.08567675  0.00000000       0.012
   0.10709593  0.10709593  0.00000000       0.006
   0.12851512  0.10709593  0.00000000       0.012
   0.12851512  0.12851512  0.00000000       0.006
   0.00000000  0.00000000  0.02319704       0.003
   0.02141919  0.00000000  0.02319704       0.012
   0.04283837  0.00000000  0.02319704       0.012
   0.06425756  0.00000000  0.02319704       0.012
   0.08567675  0.00000000  0.02319704       0.012
   0.10709593  0.00000000  0.02319704       0.012
   0.12851512  0.00000000  0.02319704       0.012
   0.02141919  0.02141919  0.02319704       0.012
   0.04283837  0.02141919  0.02319704       0.024
   0.06425756  0.02141919  0.02319704       0.024
   0.08567675  0.02141919  0.02319704       0.024
   0.10709593  0.02141919  0.02319704       0.024
   0.12851512  0.02141919  0.02319704       0.024
   0.04283837  0.04283837  0.02319704       0.012
   0.06425756  0.04283837  0.02319704       0.024
   0.08567675  0.04283837  0.02319704       0.024
   0.10709593  0.04283837  0.02319704       0.024
   0.12851512  0.04283837  0.02319704       0.024
   0.06425756  0.06425756  0.02319704       0.012
   0.08567675  0.06425756  0.02319704       0.024
   0.10709593  0.06425756  0.02319704       0.024
   0.12851512  0.06425756  0.02319704       0.024
   0.08567675  0.08567675  0.02319704       0.012
   0.10709593  0.08567675  0.02319704       0.024
   0.12851512  0.08567675  0.02319704       0.024
   0.10709593  0.10709593  0.02319704       0.012
   0.12851512  0.10709593  0.02319704       0.024
   0.12851512  0.12851512  0.02319704       0.012
   0.00000000  0.00000000  0.04639408       0.001
   0.02141919  0.00000000  0.04639408       0.006
   0.04283837  0.00000000  0.04639408       0.006
   0.06425756  0.00000000  0.04639408       0.006
   0.08567675  0.00000000  0.04639408       0.006
   0.10709593  0.00000000  0.04639408       0.006
   0.12851512  0.00000000  0.04639408       0.006
   0.02141919  0.02141919  0.04639408       0.006
   0.04283837  0.02141919  0.04639408       0.012
   0.06425756  0.02141919  0.04639408       0.012
   0.08567675  0.02141919  0.04639408       0.012
   0.10709593  0.02141919  0.04639408       0.012
   0.12851512  0.02141919  0.04639408       0.012
   0.04283837  0.04283837  0.04639408       0.006
   0.06425756  0.04283837  0.04639408       0.012
   0.08567675  0.04283837  0.04639408       0.012
   0.10709593  0.04283837  0.04639408       0.012
   0.12851512  0.04283837  0.04639408       0.012
   0.06425756  0.06425756  0.04639408       0.006
   0.08567675  0.06425756  0.04639408       0.012
   0.10709593  0.06425756  0.04639408       0.012
   0.12851512  0.06425756  0.04639408       0.012
   0.08567675  0.08567675  0.04639408       0.006
   0.10709593  0.08567675  0.04639408       0.012
   0.12851512  0.08567675  0.04639408       0.012
   0.10709593  0.10709593  0.04639408       0.006
   0.12851512  0.10709593  0.04639408       0.012
   0.12851512  0.12851512  0.04639408       0.006
 
 k-points in reciprocal lattice and weights: pymatgen with grid density = 8800 / numb
   0.00000000  0.00000000  0.00000000       0.001
   0.07692308  0.00000000  0.00000000       0.006
   0.15384615  0.00000000  0.00000000       0.006
   0.23076923  0.00000000  0.00000000       0.006
   0.30769231  0.00000000  0.00000000       0.006
   0.38461538  0.00000000  0.00000000       0.006
   0.46153846  0.00000000  0.00000000       0.006
   0.07692308  0.07692308  0.00000000       0.006
   0.15384615  0.07692308  0.00000000       0.012
   0.23076923  0.07692308  0.00000000       0.012
   0.30769231  0.07692308  0.00000000       0.012
   0.38461538  0.07692308  0.00000000       0.012
   0.46153846  0.07692308  0.00000000       0.012
   0.15384615  0.15384615  0.00000000       0.006
   0.23076923  0.15384615  0.00000000       0.012
   0.30769231  0.15384615  0.00000000       0.012
   0.38461538  0.15384615  0.00000000       0.012
   0.46153846  0.15384615  0.00000000       0.012
   0.23076923  0.23076923  0.00000000       0.006
   0.30769231  0.23076923  0.00000000       0.012
   0.38461538  0.23076923  0.00000000       0.012
   0.46153846  0.23076923  0.00000000       0.012
   0.30769231  0.30769231  0.00000000       0.006
   0.38461538  0.30769231  0.00000000       0.012
   0.46153846  0.30769231  0.00000000       0.012
   0.38461538  0.38461538  0.00000000       0.006
   0.46153846  0.38461538  0.00000000       0.012
   0.46153846  0.46153846  0.00000000       0.006
   0.00000000  0.00000000  0.25000000       0.003
   0.07692308  0.00000000  0.25000000       0.012
   0.15384615  0.00000000  0.25000000       0.012
   0.23076923  0.00000000  0.25000000       0.012
   0.30769231  0.00000000  0.25000000       0.012
   0.38461538  0.00000000  0.25000000       0.012
   0.46153846  0.00000000  0.25000000       0.012
   0.07692308  0.07692308  0.25000000       0.012
   0.15384615  0.07692308  0.25000000       0.024
   0.23076923  0.07692308  0.25000000       0.024
   0.30769231  0.07692308  0.25000000       0.024
   0.38461538  0.07692308  0.25000000       0.024
   0.46153846  0.07692308  0.25000000       0.024
   0.15384615  0.15384615  0.25000000       0.012
   0.23076923  0.15384615  0.25000000       0.024
   0.30769231  0.15384615  0.25000000       0.024
   0.38461538  0.15384615  0.25000000       0.024
   0.46153846  0.15384615  0.25000000       0.024
   0.23076923  0.23076923  0.25000000       0.012
   0.30769231  0.23076923  0.25000000       0.024
   0.38461538  0.23076923  0.25000000       0.024
   0.46153846  0.23076923  0.25000000       0.024
   0.30769231  0.30769231  0.25000000       0.012
   0.38461538  0.30769231  0.25000000       0.024
   0.46153846  0.30769231  0.25000000       0.024
   0.38461538  0.38461538  0.25000000       0.012
   0.46153846  0.38461538  0.25000000       0.024
   0.46153846  0.46153846  0.25000000       0.012
   0.00000000  0.00000000  0.50000000       0.001
   0.07692308  0.00000000  0.50000000       0.006
   0.15384615  0.00000000  0.50000000       0.006
   0.23076923  0.00000000  0.50000000       0.006
   0.30769231  0.00000000  0.50000000       0.006
   0.38461538  0.00000000  0.50000000       0.006
   0.46153846  0.00000000  0.50000000       0.006
   0.07692308  0.07692308  0.50000000       0.006
   0.15384615  0.07692308  0.50000000       0.012
   0.23076923  0.07692308  0.50000000       0.012
   0.30769231  0.07692308  0.50000000       0.012
   0.38461538  0.07692308  0.50000000       0.012
   0.46153846  0.07692308  0.50000000       0.012
   0.15384615  0.15384615  0.50000000       0.006
   0.23076923  0.15384615  0.50000000       0.012
   0.30769231  0.15384615  0.50000000       0.012
   0.38461538  0.15384615  0.50000000       0.012
   0.46153846  0.15384615  0.50000000       0.012
   0.23076923  0.23076923  0.50000000       0.006
   0.30769231  0.23076923  0.50000000       0.012
   0.38461538  0.23076923  0.50000000       0.012
   0.46153846  0.23076923  0.50000000       0.012
   0.30769231  0.30769231  0.50000000       0.006
   0.38461538  0.30769231  0.50000000       0.012
   0.46153846  0.30769231  0.50000000       0.012
   0.38461538  0.38461538  0.50000000       0.006
   0.46153846  0.38461538  0.50000000       0.012
   0.46153846  0.46153846  0.50000000       0.006
 
 position of ions in fractional coordinates (direct lattice) 
   0.00000000  0.50000000  0.16667652
   0.00000000  0.50000000  0.50000000
   0.00000000  0.50000000  0.83332348
   0.50000000  0.50000000  0.00000000
   0.50000000  0.50000000  0.33329301
   0.50000000  0.50000000  0.66670699
   0.50000000  0.00000000  0.16667652
   0.50000000  0.00000000  0.50000000
   0.50000000  0.00000000  0.83332348
   0.00000000  0.00000000  0.00000000
   0.00000000  0.00000000  0.33330949
   0.00000000  0.00000000  0.66669051
 
 position of ions in cartesian coordinates  (Angst):
   0.00000000  1.79565819  1.79631247
   0.00000000  1.79565819  5.38861892
   0.00000000  1.79565819  8.98092537
   1.79565819  1.79565819  0.00000000
   1.79565819  1.79565819  3.59197799
   1.79565819  1.79565819  7.18525985
   1.79565819  0.00000000  1.79631247
   1.79565819  0.00000000  5.38861892
   1.79565819  0.00000000  8.98092537
   0.00000000  0.00000000  0.00000000
   0.00000000  0.00000000  3.59215562
   0.00000000  0.00000000  7.18508222
 


--------------------------------------------------------------------------------------------------------


 k-point     1 :   0.0000 0.0000 0.0000  plane waves:    3713
 k-point     2 :   0.0769 0.0000 0.0000  plane waves:    3747
 k-point     3 :   0.1538 0.0000 0.0000  plane waves:    3765
 k-point     4 :   0.2308 0.0000 0.0000  plane waves:    3753
 k-point     5 :   0.3077 0.0000 0.0000  plane waves:    3755
 k-point     6 :   0.3846 0.0000 0.0000  plane waves:    3744
 k-point     7 :   0.4615 0.0000 0.0000  plane waves:    3734
 k-point     8 :   0.0769 0.0769 0.0000  plane waves:    3741
 k-point     9 :   0.1538 0.0769 0.0000  plane waves:    3760
 k-point    10 :   0.2308 0.0769 0.0000  plane waves:    3752
 k-point    11 :   0.3077 0.0769 0.0000  plane waves:    3746
 k-point    12 :   0.3846 0.0769 0.0000  plane waves:    3737
 k-point    13 :   0.4615 0.0769 0.0000  plane waves:    3733
 k-point    14 :   0.1538 0.1538 0.0000  plane waves:    3753
 k-point    15 :   0.2308 0.1538 0.0000  plane waves:    3745
 k-point    16 :   0.3077 0.1538 0.0000  plane waves:    3738
 k-point    17 :   0.3846 0.1538 0.0000  plane waves:    3723
 k-point    18 :   0.4615 0.1538 0.0000  plane waves:    3732
 k-point    19 :   0.2308 0.2308 0.0000  plane waves:    3749
 k-point    20 :   0.3077 0.2308 0.0000  plane waves:    3738
 k-point    21 :   0.3846 0.2308 0.0000  plane waves:    3728
 k-point    22 :   0.4615 0.2308 0.0000  plane waves:    3717
 k-point    23 :   0.3077 0.3077 0.0000  plane waves:    3738
 k-point    24 :   0.3846 0.3077 0.0000  plane waves:    3740
 k-point    25 :   0.4615 0.3077 0.0000  plane waves:    3733
 k-point    26 :   0.3846 0.3846 0.0000  plane waves:    3742
 k-point    27 :   0.4615 0.3846 0.0000  plane waves:    3746
 k-point    28 :   0.4615 0.4615 0.0000  plane waves:    3754
 k-point    29 :   0.0000 0.0000 0.2500  plane waves:    3768
 k-point    30 :   0.0769 0.0000 0.2500  plane waves:    3753
 k-point    31 :   0.1538 0.0000 0.2500  plane waves:    3757
 k-point    32 :   0.2308 0.0000 0.2500  plane waves:    3764
 k-point    33 :   0.3077 0.0000 0.2500  plane waves:    3749
 k-point    34 :   0.3846 0.0000 0.2500  plane waves:    3723
 k-point    35 :   0.4615 0.0000 0.2500  plane waves:    3734
 k-point    36 :   0.0769 0.0769 0.2500  plane waves:    3754
 k-point    37 :   0.1538 0.0769 0.2500  plane waves:    3761
 k-point    38 :   0.2308 0.0769 0.2500  plane waves:    3754
 k-point    39 :   0.3077 0.0769 0.2500  plane waves:    3743
 k-point    40 :   0.3846 0.0769 0.2500  plane waves:    3731
 k-point    41 :   0.4615 0.0769 0.2500  plane waves:    3736
 k-point    42 :   0.1538 0.1538 0.2500  plane waves:    3763
 k-point    43 :   0.2308 0.1538 0.2500  plane waves:    3741
 k-point    44 :   0.3077 0.1538 0.2500  plane waves:    3730
 k-point    45 :   0.3846 0.1538 0.2500  plane waves:    3733
 k-point    46 :   0.4615 0.1538 0.2500  plane waves:    3729
 k-point    47 :   0.2308 0.2308 0.2500  plane waves:    3742
 k-point    48 :   0.3077 0.2308 0.2500  plane waves:    3738
 k-point    49 :   0.3846 0.2308 0.2500  plane waves:    3739
 k-point    50 :   0.4615 0.2308 0.2500  plane waves:    3737
 k-point    51 :   0.3077 0.3077 0.2500  plane waves:    3728
 k-point    52 :   0.3846 0.3077 0.2500  plane waves:    3739
 k-point    53 :   0.4615 0.3077 0.2500  plane waves:    3736
 k-point    54 :   0.3846 0.3846 0.2500  plane waves:    3749
 k-point    55 :   0.4615 0.3846 0.2500  plane waves:    3751
 k-point    56 :   0.4615 0.4615 0.2500  plane waves:    3750
 k-point    57 :   0.0000 0.0000 0.5000  plane waves:    3760
 k-point    58 :   0.0769 0.0000 0.5000  plane waves:    3772
 k-point    59 :   0.1538 0.0000 0.5000  plane waves:    3770
 k-point    60 :   0.2308 0.0000 0.5000  plane waves:    3768
 k-point    61 :   0.3077 0.0000 0.5000  plane waves:    3752
 k-point    62 :   0.3846 0.0000 0.5000  plane waves:    3718
 k-point    63 :   0.4615 0.0000 0.5000  plane waves:    3734
 k-point    64 :   0.0769 0.0769 0.5000  plane waves:    3776
 k-point    65 :   0.1538 0.0769 0.5000  plane waves:    3764
 k-point    66 :   0.2308 0.0769 0.5000  plane waves:    3754
 k-point    67 :   0.3077 0.0769 0.5000  plane waves:    3742
 k-point    68 :   0.3846 0.0769 0.5000  plane waves:    3728
 k-point    69 :   0.4615 0.0769 0.5000  plane waves:    3736
 k-point    70 :   0.1538 0.1538 0.5000  plane waves:    3752
 k-point    71 :   0.2308 0.1538 0.5000  plane waves:    3744
 k-point    72 :   0.3077 0.1538 0.5000  plane waves:    3742
 k-point    73 :   0.3846 0.1538 0.5000  plane waves:    3748
 k-point    74 :   0.4615 0.1538 0.5000  plane waves:    3748
 k-point    75 :   0.2308 0.2308 0.5000  plane waves:    3744
 k-point    76 :   0.3077 0.2308 0.5000  plane waves:    3726
 k-point    77 :   0.3846 0.2308 0.5000  plane waves:    3732
 k-point    78 :   0.4615 0.2308 0.5000  plane waves:    3732
 k-point    79 :   0.3077 0.3077 0.5000  plane waves:    3726
 k-point    80 :   0.3846 0.3077 0.5000  plane waves:    3734
 k-point    81 :   0.4615 0.3077 0.5000  plane waves:    3732
 k-point    82 :   0.3846 0.3846 0.5000  plane waves:    3744
 k-point    83 :   0.4615 0.3846 0.5000  plane waves:    3750
 k-point    84 :   0.4615 0.4615 0.5000  plane waves:    3748

 maximum and minimum number of plane-waves per node :      3776     3713

 maximum number of plane-waves:      3776
 maximum index in each direction: 
   IXMAX=    6   IYMAX=    6   IZMAX=   20
   IXMIN=   -7   IYMIN=   -7   IZMIN=  -20


 serial   3D FFT for wavefunctions
 parallel 3D FFT for charge:
    minimum data exchange during FFTs selected (reduces bandwidth)


 total amount of memory used by VASP MPI-rank0   258808. kBytes
=======================================================================

   base      :      30000. kBytes
   nonl-proj :      92073. kBytes
   fftplans  :        848. kBytes
   grid      :       6490. kBytes
   one-center:        373. kBytes
   wavefun   :     129024. kBytes
 
     INWAV:  cpu time      0.0000: real time      0.0000
 Broyden mixing: mesh for mixing (old mesh)
   NGX = 13   NGY = 13   NGZ = 41
  (NGX  = 56   NGY  = 56   NGZ  =160)
  gives a total of   6929 points

 initial charge density was supplied:
 charge density of overlapping atoms calculated
 number of electron     156.0000000 magnetization      23.0830000
 charge density for first step will be calculated from the start-wavefunctions


--------------------------------------------------------------------------------------------------------


 Maximum index for augmentation-charges         1058 (set IRDMAX)


--------------------------------------------------------------------------------------------------------


 First call to EWALD:  gamma=   0.342
 Maximum number of real-space cells 4x 4x 2
 Maximum number of reciprocal cells 2x 2x 5

    FEWALD:  cpu time      0.0027: real time      0.0027


--------------------------------------- Ionic step        1  -------------------------------------------




--------------------------------------- Iteration      1(   1)  ---------------------------------------


    POTLOK:  cpu time      0.0375: real time      0.0388
    SETDIJ:  cpu time      0.0093: real time      0.0094
    TRIAL :  cpu time      5.5932: real time      5.6370
    CORREC:  cpu time      0.0027: real time      0.0028
    --------------------------------------------
      LOOP:  cpu time      5.7595: real time      5.8074

 eigenvalue-minimisations  : 43168
 total energy-change (2. order) : 0.1761631E+04  (-0.9103102E+04)
 number of electron     156.0000000 magnetization      23.0830000
 augmentation part      156.0000000 magnetization      23.0830000

 Free energy of the ion-electron system (eV)
  ---------------------------------------------------
  alpha Z        PSCENC =      1224.38942132
  Ewald energy   TEWEN  =    -18801.71087615
  -Hartree energ DENC   =     -5640.22640109
  -exchange      EXHF   =         0.00000000
  -V(xc)+E(xc)   XCENC  =       661.72014355
  PAW double counting   =     20094.87886926   -20818.89187093
  entropy T*S    EENTRO =         0.00223500
  eigenvalues    EBANDS =       737.36636336
  atomic energy  EATOM  =     24304.10294433
  ---------------------------------------------------
  free energy    TOTEN  =      1761.63082863 eV

  energy without entropy =     1761.62859364  energy(sigma->0) =     1761.63008363


--------------------------------------------------------------------------------------------------------




--------------------------------------- Iteration      1(   2)  ---------------------------------------


    TRIAL :  cpu time      5.2847: real time      5.3232
    CORREC:  cpu time      0.0024: real time      0.0024
    --------------------------------------------
      LOOP:  cpu time      5.3012: real time      5.3464

 eigenvalue-minimisations  : 43008
 total energy-change (2. order) :-0.1754286E+04  (-0.1661458E+04)
 number of electron     156.0000000 magnetization      23.0830000
 augmentation part      156.0000000 magnetization      23.0830000

 Free energy of the ion-electron system (eV)
  ---------------------------------------------------
  alpha Z        PSCENC =      1224.38942132
  Ewald energy   TEWEN  =    -18801.71087615
  -Hartree energ DENC   =     -5640.22640109
  -exchange      EXHF   =         0.00000000
  -V(xc)+E(xc)   XCENC  =       661.72014355
  PAW double counting   =     20094.87886926   -20818.89187093
  entropy T*S    EENTRO =        -0.00413226
  eigenvalues    EBANDS =     -1016.91311625
  atomic energy  EATOM  =     24304.10294433
  ---------------------------------------------------
  free energy    TOTEN  =         7.34498176 eV

  energy without entropy =        7.34911402  energy(sigma->0) =        7.34635918


--------------------------------------------------------------------------------------------------------




--------------------------------------- Iteration      1(   3)  ---------------------------------------


    TRIAL :  cpu time      6.4801: real time      6.5224
    CORREC:  cpu time      0.0025: real time      0.0026
    --------------------------------------------
      LOOP:  cpu time      6.4996: real time      6.5470

 eigenvalue-minimisations  : 50720
 total energy-change (2. order) :-0.1092223E+03  (-0.1077406E+03)
 number of electron     156.0000000 magnetization      23.0830000
 augmentation part      156.0000000 magnetization      23.0830000

 Free energy of the ion-electron system (eV)
  ---------------------------------------------------
  alpha Z        PSCENC =      1224.38942132
  Ewald energy   TEWEN  =    -18801.71087615
  -Hartree energ DENC   =     -5640.22640109
  -exchange      EXHF   =         0.00000000
  -V(xc)+E(xc)   XCENC  =       661.72014355
  PAW double counting   =     20094.87886926   -20818.89187093
  entropy T*S    EENTRO =        -0.03565920
  eigenvalues    EBANDS =     -1126.10386898
  atomic energy  EATOM  =     24304.10294433
  ---------------------------------------------------
  free energy    TOTEN  =      -101.87729790 eV

  energy without entropy =     -101.84163871  energy(sigma->0) =     -101.86541150


--------------------------------------------------------------------------------------------------------




--------------------------------------- Iteration      1(   4)  ---------------------------------------


    TRIAL :  cpu time      5.6146: real time      5.6529
    CORREC:  cpu time      0.0025: real time      0.0025
    --------------------------------------------
      LOOP:  cpu time      5.6329: real time      5.6767

 eigenvalue-minimisations  : 45888
 total energy-change (2. order) :-0.1482266E+01  (-0.1481950E+01)
 number of electron     156.0000000 magnetization      23.0830000
 augmentation part      156.0000000 magnetization      23.0830000

 Free energy of the ion-electron system (eV)
  ---------------------------------------------------
  alpha Z        PSCENC =      1224.38942132
  Ewald energy   TEWEN  =    -18801.71087615
  -Hartree energ DENC   =     -5640.22640109
  -exchange      EXHF   =         0.00000000
  -V(xc)+E(xc)   XCENC  =       661.72014355
  PAW double counting   =     20094.87886926   -20818.89187093
  entropy T*S    EENTRO =        -0.03560624
  eigenvalues    EBANDS =     -1127.58618748
  atomic energy  EATOM  =     24304.10294433
  ---------------------------------------------------
  free energy    TOTEN  =      -103.35956345 eV

  energy without entropy =     -103.32395720  energy(sigma->0) =     -103.34769470


--------------------------------------------------------------------------------------------------------




--------------------------------------- Iteration      1(   5)  ---------------------------------------


    TRIAL :  cpu time      6.9199: real time      6.9657
    CORREC:  cpu time      0.0026: real time      0.0027
    CHARGE:  cpu time      0.1562: real time      0.1578
    --------------------------------------------
      LOOP:  cpu time      7.0935: real time      7.1479

 eigenvalue-minimisations  : 53376
 total energy-change (2. order) :-0.2552005E-01  (-0.2551934E-01)
 number of electron     155.9999842 magnetization      16.8109805
 augmentation part       79.3952031 magnetization      12.2346954

 Free energy of the ion-electron system (eV)
  ---------------------------------------------------
  alpha Z        PSCENC =      1224.38942132
  Ewald energy   TEWEN  =    -18801.71087615
  -Hartree energ DENC   =     -5640.22640109
  -exchange      EXHF   =         0.00000000
  -V(xc)+E(xc)   XCENC  =       661.72014355
  PAW double counting   =     20094.87886926   -20818.89187093
  entropy T*S    EENTRO =        -0.03560502
  eigenvalues    EBANDS =     -1127.61170875
  atomic energy  EATOM  =     24304.10294433
  ---------------------------------------------------
  free energy    TOTEN  =      -103.38508349 eV

  energy without entropy =     -103.34947847  energy(sigma->0) =     -103.37321515


--------------------------------------------------------------------------------------------------------




--------------------------------------- Iteration      1(   6)  ---------------------------------------


    POTLOK:  cpu time      0.0924: real time      0.0929
    SETDIJ:  cpu time      0.0037: real time      0.0037
    TRIAL :  cpu time      2.5134: real time      2.5378
    CORREC:  cpu time      1.1679: real time      1.1778
    CHARGE:  cpu time      0.1452: real time      0.1459
    --------------------------------------------
      LOOP:  cpu time      3.9371: real time      3.9789

 eigenvalue-minimisations  :     0
 total energy-change (2. order) : 0.4238110E+02  (-0.2490203E+02)
 number of electron     155.9999836 magnetization      18.0517108
 augmentation part       83.3467933 magnetization      13.5161879

 Free energy of the ion-electron system (eV)
  ---------------------------------------------------
  alpha Z        PSCENC =      1224.38942132
  Ewald energy   TEWEN  =    -18801.71087615
  -Hartree energ DENC   =     -4620.59219589
  -exchange      EXHF   =         0.00000000
  -V(xc)+E(xc)   XCENC  =       617.13307643
  PAW double counting   =     22313.12691724   -22989.69936035
  entropy T*S    EENTRO =        -0.02069333
  eigenvalues    EBANDS =     -2107.71830825
  atomic energy  EATOM  =     24304.10294433
  ---------------------------------------------------
  free energy    TOTEN  =       -61.00398635 eV

  energy without entropy =      -60.98329302  energy(sigma->0) =      -60.99708857


--------------------------------------------------------------------------------------------------------




--------------------------------------- Iteration      1(   7)  ---------------------------------------


    POTLOK:  cpu time      0.0212: real time      0.0214
    SETDIJ:  cpu time      0.0083: real time      0.0084
    TRIAL :  cpu time      2.5131: real time      2.5380
    CORREC:  cpu time      1.0501: real time      1.0613
    CHARGE:  cpu time      0.1422: real time      0.1431
    --------------------------------------------
      LOOP:  cpu time      3.7514: real time      3.7944

 eigenvalue-minimisations  :     0
 total energy-change (2. order) :-0.2534368E+02  (-0.4030448E+01)
 number of electron     155.9999836 magnetization      18.8048001
 augmentation part       84.3718865 magnetization      14.2310957

 Free energy of the ion-electron system (eV)
  ---------------------------------------------------
  alpha Z        PSCENC =      1224.38942132
  Ewald energy   TEWEN  =    -18801.71087615
  -Hartree energ DENC   =     -5157.45592626
  -exchange      EXHF   =         0.00000000
  -V(xc)+E(xc)   XCENC  =       639.65475029
  PAW double counting   =     22841.35231768   -23623.38399708
  entropy T*S    EENTRO =        -0.02299514
  eigenvalues    EBANDS =     -1513.27560868
  atomic energy  EATOM  =     24304.10294433
  ---------------------------------------------------
  free energy    TOTEN  =       -86.34766789 eV

  energy without entropy =      -86.32467275  energy(sigma->0) =      -86.34000284


--------------------------------------------------------------------------------------------------------




--------------------------------------- Iteration      1(   8)  ---------------------------------------


    POTLOK:  cpu time      0.0213: real time      0.0216
    SETDIJ:  cpu time      0.0078: real time      0.0079
    TRIAL :  cpu time      2.5385: real time      2.5646
    CORREC:  cpu time      1.0479: real time      1.0593
    CHARGE:  cpu time      0.1401: real time      0.1410
    --------------------------------------------
      LOOP:  cpu time      3.7736: real time      3.8183

 eigenvalue-minimisations  :     0
 total energy-change (2. order) :-0.4020736E+01  (-0.3151081E+00)
 number of electron     155.9999836 magnetization      18.8845258
 augmentation part       84.4454958 magnetization      14.3033769

 Free energy of the ion-electron system (eV)
  ---------------------------------------------------
  alpha Z        PSCENC =      1224.38942132
  Ewald energy   TEWEN  =    -18801.71087615
  -Hartree energ DENC   =     -5257.51315539
  -exchange      EXHF   =         0.00000000
  -V(xc)+E(xc)   XCENC  =       644.75341856
  PAW double counting   =     22974.94414541   -23754.91026129
  entropy T*S    EENTRO =        -0.02294161
  eigenvalues    EBANDS =     -1424.40104590
  atomic energy  EATOM  =     24304.10294433
  ---------------------------------------------------
  free energy    TOTEN  =       -90.36840425 eV

  energy without entropy =      -90.34546264  energy(sigma->0) =      -90.36075705


--------------------------------------------------------------------------------------------------------




--------------------------------------- Iteration      1(   9)  ---------------------------------------


    POTLOK:  cpu time      0.0208: real time      0.0210
    SETDIJ:  cpu time      0.0082: real time      0.0083
    TRIAL :  cpu time      2.5944: real time      2.6193
    CORREC:  cpu time      1.0532: real time      1.0655
    CHARGE:  cpu time      0.1399: real time      0.1407
    --------------------------------------------
      LOOP:  cpu time      3.8320: real time      3.8772

 eigenvalue-minimisations  :     0
 total energy-change (2. order) :-0.2962709E+00  (-0.1012321E+01)
 number of electron     155.9999836 magnetization      19.3076722
 augmentation part       84.5938682 magnetization      14.6745274

 Free energy of the ion-electron system (eV)
  ---------------------------------------------------
  alpha Z        PSCENC =      1224.38942132
  Ewald energy   TEWEN  =    -18801.71087615
  -Hartree energ DENC   =     -5264.91102522
  -exchange      EXHF   =         0.00000000
  -V(xc)+E(xc)   XCENC  =       645.14134246
  PAW double counting   =     22988.23360084   -23767.14331124
  entropy T*S    EENTRO =        -0.01792830
  eigenvalues    EBANDS =     -1418.74382983
  atomic energy  EATOM  =     24304.10294433
  ---------------------------------------------------
  free energy    TOTEN  =       -90.66467511 eV

  energy without entropy =      -90.64674681  energy(sigma->0) =      -90.65869901


--------------------------------------------------------------------------------------------------------




--------------------------------------- Iteration      1(  10)  ---------------------------------------


    POTLOK:  cpu time      0.0210: real time      0.0212
    SETDIJ:  cpu time      0.0077: real time      0.0077
    TRIAL :  cpu time      2.5248: real time      2.5504
    CORREC:  cpu time      1.0466: real time      1.0582
    CHARGE:  cpu time      0.1387: real time      0.1394
    --------------------------------------------
      LOOP:  cpu time      3.7613: real time      3.7997

 eigenvalue-minimisations  :     0
 total energy-change (2. order) :-0.1014562E+01  (-0.1905198E+00)
 number of electron     155.9999836 magnetization      19.3910041
 augmentation part       84.6271527 magnetization      14.7489968

 Free energy of the ion-electron system (eV)
  ---------------------------------------------------
  alpha Z        PSCENC =      1224.38942132
  Ewald energy   TEWEN  =    -18801.71087615
  -Hartree energ DENC   =     -5286.68607821
  -exchange      EXHF   =         0.00000000
  -V(xc)+E(xc)   XCENC  =       646.17430002
  PAW double counting   =     22987.49352819   -23753.31299234
  entropy T*S    EENTRO =        -0.01589445
  eigenvalues    EBANDS =     -1412.11155606
  atomic energy  EATOM  =     24304.10294433
  ---------------------------------------------------
  free energy    TOTEN  =       -91.67923720 eV

  energy without entropy =      -91.66334275  energy(sigma->0) =      -91.67393905


--------------------------------------------------------------------------------------------------------




--------------------------------------- Iteration      1(  11)  ---------------------------------------


    POTLOK:  cpu time      0.0213: real time      0.0215
    SETDIJ:  cpu time      0.0079: real time      0.0080
    TRIAL :  cpu time      2.5141: real time      2.5399
    CORREC:  cpu time      1.0477: real time      1.0593
    CHARGE:  cpu time      0.1384: real time      0.1391
    --------------------------------------------
      LOOP:  cpu time      3.7455: real time      3.7905

 eigenvalue-minimisations  :     0
 total energy-change (2. order) :-0.2255027E+00  (-0.1183916E+00)
 number of electron     155.9999836 magnetization      19.4592729
 augmentation part       84.6663379 magnetization      14.8095497

 Free energy of the ion-electron system (eV)
  ---------------------------------------------------
  alpha Z        PSCENC =      1224.38942132
  Ewald energy   TEWEN  =    -18801.71087615
  -Hartree energ DENC   =     -5291.70144803
  -exchange      EXHF   =         0.00000000
  -V(xc)+E(xc)   XCENC  =       646.40872669
  PAW double counting   =     22989.13304511   -23752.89067701
  entropy T*S    EENTRO =        -0.01513413
  eigenvalues    EBANDS =     -1409.61998170
  atomic energy  EATOM  =     24304.10294433
  ---------------------------------------------------
  free energy    TOTEN  =       -91.90473990 eV

  energy without entropy =      -91.88960576  energy(sigma->0) =      -91.89969519


--------------------------------------------------------------------------------------------------------




--------------------------------------- Iteration      1(  12)  ---------------------------------------


    POTLOK:  cpu time      0.0208: real time      0.0210
    SETDIJ:  cpu time      0.0085: real time      0.0086
    TRIAL :  cpu time      2.5687: real time      2.5943
    CORREC:  cpu time      1.0527: real time      1.0645
    CHARGE:  cpu time      0.1369: real time      0.1375
    --------------------------------------------
      LOOP:  cpu time      3.8039: real time      3.8489

 eigenvalue-minimisations  :     0
 total energy-change (2. order) :-0.1170396E+00  (-0.6701771E-01)
 number of electron     155.9999836 magnetization      19.5472150
 augmentation part       84.7165193 magnetization      14.8867239

 Free energy of the ion-electron system (eV)
  ---------------------------------------------------
  alpha Z        PSCENC =      1224.38942132
  Ewald energy   TEWEN  =    -18801.71087615
  -Hartree energ DENC   =     -5297.69148975
  -exchange      EXHF   =         0.00000000
  -V(xc)+E(xc)   XCENC  =       646.67214637
  PAW double counting   =     22987.60939797   -23751.09079886
  entropy T*S    EENTRO =        -0.01550326
  eigenvalues    EBANDS =     -1404.28739062
  atomic energy  EATOM  =     24304.10294433
  ---------------------------------------------------
  free energy    TOTEN  =       -92.02177953 eV

  energy without entropy =      -92.00627627  energy(sigma->0) =      -92.01661177


--------------------------------------------------------------------------------------------------------




--------------------------------------- Iteration      1(  13)  ---------------------------------------


    POTLOK:  cpu time      0.0212: real time      0.0214
    SETDIJ:  cpu time      0.0077: real time      0.0077
    TRIAL :  cpu time      2.5704: real time      2.5952
    CORREC:  cpu time      1.1147: real time      1.1265
    CHARGE:  cpu time      0.1388: real time      0.1395
    --------------------------------------------
      LOOP:  cpu time      3.8691: real time      3.9129

 eigenvalue-minimisations  :     0
 total energy-change (2. order) :-0.6625635E-01  (-0.7175449E-01)
 number of electron     155.9999836 magnetization      19.6568331
 augmentation part       84.7695295 magnetization      14.9825942

 Free energy of the ion-electron system (eV)
  ---------------------------------------------------
  alpha Z        PSCENC =      1224.38942132
  Ewald energy   TEWEN  =    -18801.71087615
  -Hartree energ DENC   =     -5304.61583587
  -exchange      EXHF   =         0.00000000
  -V(xc)+E(xc)   XCENC  =       646.99168840
  PAW double counting   =     22979.88495823   -23744.14713072
  entropy T*S    EENTRO =        -0.01603028
  eigenvalues    EBANDS =     -1396.96770215
  atomic energy  EATOM  =     24304.10294433
  ---------------------------------------------------
  free energy    TOTEN  =       -92.08803588 eV

  energy without entropy =      -92.07200560  energy(sigma->0) =      -92.08269245


--------------------------------------------------------------------------------------------------------




--------------------------------------- Iteration      1(  14)  ---------------------------------------


    POTLOK:  cpu time      0.0211: real time      0.0213
    SETDIJ:  cpu time      0.0082: real time      0.0083
    TRIAL :  cpu time      2.5457: real time      2.5710
    CORREC:  cpu time      1.1379: real time      1.1504
    CHARGE:  cpu time      0.1375: real time      0.1382
    --------------------------------------------
      LOOP:  cpu time      3.8662: real time      3.9118

 eigenvalue-minimisations  :     0
 total energy-change (2. order) :-0.6747879E-01  (-0.2309144E-01)
 number of electron     155.9999837 magnetization      19.7639127
 augmentation part       84.7501087 magnetization      15.0753730

 Free energy of the ion-electron system (eV)
  ---------------------------------------------------
  alpha Z        PSCENC =      1224.38942132
  Ewald energy   TEWEN  =    -18801.71087615
  -Hartree energ DENC   =     -5311.27091897
  -exchange      EXHF   =         0.00000000
  -V(xc)+E(xc)   XCENC  =       647.32216265
  PAW double counting   =     22969.08498424   -23734.19931351
  entropy T*S    EENTRO =        -0.01679155
  eigenvalues    EBANDS =     -1389.85788829
  atomic energy  EATOM  =     24304.10294433
  ---------------------------------------------------
  free energy    TOTEN  =       -92.15551467 eV

  energy without entropy =      -92.13872312  energy(sigma->0) =      -92.14991748


--------------------------------------------------------------------------------------------------------




--------------------------------------- Iteration      1(  15)  ---------------------------------------


    POTLOK:  cpu time      0.0212: real time      0.0214
    SETDIJ:  cpu time      0.0079: real time      0.0079
    TRIAL :  cpu time      2.5380: real time      2.5631
    CORREC:  cpu time      1.0418: real time      1.0539
    CHARGE:  cpu time      0.1398: real time      0.1406
    --------------------------------------------
      LOOP:  cpu time      3.7644: real time      3.8093

 eigenvalue-minimisations  :     0
 total energy-change (2. order) :-0.2308813E-01  (-0.7814941E-02)
 number of electron     155.9999837 magnetization      19.8088994
 augmentation part       84.7460014 magnetization      15.1164752

 Free energy of the ion-electron system (eV)
  ---------------------------------------------------
  alpha Z        PSCENC =      1224.38942132
  Ewald energy   TEWEN  =    -18801.71087615
  -Hartree energ DENC   =     -5303.77178611
  -exchange      EXHF   =         0.00000000
  -V(xc)+E(xc)   XCENC  =       647.14228677
  PAW double counting   =     22945.90010180   -23709.90251132
  entropy T*S    EENTRO =        -0.01688612
  eigenvalues    EBANDS =     -1398.31139188
  atomic energy  EATOM  =     24304.10294433
  ---------------------------------------------------
  free energy    TOTEN  =       -92.17860280 eV

  energy without entropy =      -92.16171668  energy(sigma->0) =      -92.17297409


--------------------------------------------------------------------------------------------------------




--------------------------------------- Iteration      1(  16)  ---------------------------------------


    POTLOK:  cpu time      0.0210: real time      0.0212
    SETDIJ:  cpu time      0.0074: real time      0.0077
    TRIAL :  cpu time      2.5869: real time      2.6119
    CORREC:  cpu time      1.0407: real time      1.0525
    CHARGE:  cpu time      0.1391: real time      0.1399
    --------------------------------------------
      LOOP:  cpu time      3.8126: real time      3.8559

 eigenvalue-minimisations  :     0
 total energy-change (2. order) :-0.7644865E-02  (-0.8611833E-02)
 number of electron     155.9999837 magnetization      19.8887773
 augmentation part       84.7541236 magnetization      15.1955540

 Free energy of the ion-electron system (eV)
  ---------------------------------------------------
  alpha Z        PSCENC =      1224.38942132
  Ewald energy   TEWEN  =    -18801.71087615
  -Hartree energ DENC   =     -5301.58724066
  -exchange      EXHF   =         0.00000000
  -V(xc)+E(xc)   XCENC  =       647.10327090
  PAW double counting   =     22939.62858992   -23703.34503011
  entropy T*S    EENTRO =        -0.01681457
  eigenvalues    EBANDS =     -1400.75044109
  atomic energy  EATOM  =     24304.10294433
  ---------------------------------------------------
  free energy    TOTEN  =       -92.18624766 eV

  energy without entropy =      -92.16943310  energy(sigma->0) =      -92.18064281


--------------------------------------------------------------------------------------------------------




--------------------------------------- Iteration      1(  17)  ---------------------------------------


    POTLOK:  cpu time      0.0208: real time      0.0211
    SETDIJ:  cpu time      0.0082: real time      0.0083
    TRIAL :  cpu time      2.5867: real time      2.6117
    CORREC:  cpu time      1.0449: real time      1.0568
    CHARGE:  cpu time      0.1379: real time      0.1386
    --------------------------------------------
      LOOP:  cpu time      3.8166: real time      3.8595

 eigenvalue-minimisations  :     0
 total energy-change (2. order) :-0.8569977E-02  (-0.1320864E-01)
 number of electron     155.9999837 magnetization      20.0762266
[...]
     78      12.6634     -0.00000
     79      12.6637     -0.00000
     80      12.7120     -0.00000
     81      12.7126     -0.00000
     82      12.9252     -0.00000
     83      12.9264     -0.00000
     84      13.2092     -0.00000
     85      13.2602     -0.00000
     86      13.4529     -0.00000
     87      13.4641     -0.00000
     88      13.5098     -0.00000
     89      13.5173     -0.00000
     90      13.5826     -0.00000
     91      13.6043     -0.00000
     92      14.1310     -0.00000
     93      14.1326     -0.00000
     94      14.6349     -0.00000
     95      14.6369     -0.00000
     96      14.6523     -0.00000
     97      14.6536     -0.00000
     98      15.2465     -0.00000
     99      15.2476     -0.00000
    100      18.0388      0.00000
    101      20.1940      0.00000
    102      20.2595      0.00000
    103      20.3100      0.00000
    104      21.0817      0.00000
    105      21.0821      0.00000
    106      21.8263      0.00000
    107      21.8287      0.00000
    108      22.3706      0.00000
    109      22.3719      0.00000
    110      22.8948      0.00000
    111      22.8951      0.00000
    112      27.4139      0.00000
    113      27.4152      0.00000
    114      27.8157      0.00000
    115      27.8170      0.00000
    116      28.2400      0.00000
    117      28.2424      0.00000
    118      29.1881      0.00000
    119      29.1883      0.00000
    120      29.4662      0.00000
    121      29.4686      0.00000
    122      29.5170      0.00000
    123      30.0637      0.00000
    124      31.4661      0.00000
    125      31.4670      0.00000
    126      31.8615      0.00000
    127      31.8624      0.00000
    128      32.7840      0.00000


--------------------------------------------------------------------------------------------------------


 soft charge-density along one line, spin component           1
         0         1         2         3         4         5         6         7         8         9
 total charge-density along one line
 
 soft charge-density along one line, spin component           2
         0         1         2         3         4         5         6         7         8         9
 total charge-density along one line
 
 pseudopotential strength for first ion, spin component:           1
-43.743   0.000  -0.000   7.109  -0.000   0.000  -0.000  -0.000
  0.000 -43.743   0.000  -0.000   7.109  -0.000   0.000   0.000
 -0.000   0.000 -43.618   0.000  -0.000   7.059   0.000   0.000
  7.109  -0.000   0.000   5.750  -0.000   0.000   0.000   0.000
 -0.000   7.109  -0.000  -0.000   5.750  -0.000  -0.000  -0.000
  0.000  -0.000   7.059   0.000  -0.000   5.759  -0.000  -0.000
 -0.000   0.000   0.000   0.000  -0.000  -0.000  -1.027   0.000
 -0.000   0.000   0.000   0.000  -0.000  -0.000   0.000  -1.121
 -0.000  -0.000  -0.000   0.000   0.000  -0.000   0.000   0.000
  0.000   0.000  -0.000  -0.000   0.000   0.000   0.000  -0.000
 -0.000  -0.000  -0.000   0.000   0.000  -0.000  -0.000  -0.000
  0.000   0.000   0.000   0.000  -0.000  -0.000  -1.557   0.000
 -0.000   0.000   0.000   0.000  -0.000  -0.000   0.000  -1.649
 -0.000  -0.000   0.000   0.000   0.000   0.000   0.000   0.000
  0.000  -0.000  -0.000  -0.000   0.000   0.000   0.000  -0.000
 -0.000  -0.000   0.000   0.000   0.000   0.000  -0.000  -0.000
 -0.000   0.000   0.000  -0.000  -0.000   0.000   0.000  -0.000
 -0.000   0.000  -0.000  -0.000  -0.000  -0.000   0.000  -0.000
 pseudopotential strength for first ion, spin component:           2
-41.694   0.000  -0.000   6.244  -0.000   0.000  -0.000  -0.000
  0.000 -41.695   0.000  -0.000   6.244  -0.000   0.000   0.000
 -0.000   0.000 -41.582   0.000  -0.000   6.198   0.000   0.000
  6.244  -0.000   0.000   5.987  -0.000   0.000   0.000   0.000
 -0.000   6.244  -0.000  -0.000   5.987  -0.000  -0.000  -0.000
  0.000  -0.000   6.198   0.000  -0.000   5.996  -0.000  -0.000
 -0.000   0.000   0.000   0.000  -0.000  -0.000   0.594   0.000
 -0.000   0.000   0.000   0.000  -0.000  -0.000   0.000   0.514
 -0.000  -0.000   0.000   0.000   0.000  -0.000   0.000   0.000
  0.000  -0.000  -0.000  -0.000   0.000   0.000   0.000  -0.000
 -0.000  -0.000  -0.000   0.000   0.000   0.000  -0.000  -0.000
 -0.000   0.000   0.000   0.000  -0.000  -0.000   0.037   0.000
 -0.000   0.000   0.000   0.000  -0.000  -0.000   0.000  -0.042
 -0.000  -0.000   0.000   0.000   0.000   0.000   0.000   0.000
  0.000  -0.000  -0.000  -0.000   0.000   0.000   0.000  -0.000
 -0.000  -0.000  -0.000   0.000   0.000   0.000  -0.000  -0.000
 -0.000   0.000   0.000  -0.000  -0.000   0.000   0.000  -0.000
 -0.000   0.000   0.000  -0.000  -0.000   0.000   0.000  -0.000
 total augmentation occupancy for first ion, spin component:           1
  1.992  -0.000   0.000  -0.023   0.000  -0.000   0.000   0.000  -0.000  -0.000   0.000  -0.000  -0.000  -0.000   0.000  -0.000
 -0.000   1.992  -0.000   0.000  -0.023   0.000   0.000  -0.000  -0.000   0.000  -0.000   0.000   0.000   0.000   0.000   0.000
  0.000  -0.000   1.992  -0.000   0.000  -0.023   0.000   0.000  -0.000  -0.000   0.000   0.000  -0.000   0.000   0.000  -0.000
 -0.023   0.000  -0.000   0.218   0.000   0.000   0.000   0.000  -0.000   0.000  -0.000   0.000  -0.000  -0.000   0.000   0.000
  0.000  -0.023   0.000   0.000   0.218  -0.000   0.000   0.000   0.000   0.000  -0.000   0.000   0.000  -0.000   0.000   0.000
 -0.000   0.000  -0.023   0.000  -0.000   0.195  -0.000   0.000   0.000   0.000   0.000   0.000   0.000  -0.000  -0.000  -0.000
  0.000   0.000   0.000   0.000   0.000  -0.000   3.055  -0.000   0.000   0.000  -0.000  -1.939   0.000  -0.000   0.000   0.000
  0.000  -0.000   0.000   0.000   0.000   0.000  -0.000   3.113  -0.000  -0.000   0.000  -0.000  -2.415  -0.000   0.000   0.000
 -0.000  -0.000  -0.000  -0.000   0.000   0.000   0.000  -0.000   3.569  -0.000   0.185  -0.000   0.000  -2.307  -0.000  -0.094
 -0.000   0.000  -0.000   0.000   0.000   0.000   0.000  -0.000  -0.000   3.043  -0.000   0.000   0.000   0.000  -1.931   0.000
  0.000  -0.000   0.000  -0.000  -0.000   0.000  -0.000   0.000   0.185  -0.000   3.346   0.000   0.000  -0.094   0.000  -2.192
 -0.000   0.000   0.000   0.000   0.000   0.000  -1.939  -0.000  -0.000   0.000   0.000   2.247   0.000   0.000  -0.000   0.000
 -0.000   0.000  -0.000  -0.000   0.000   0.000   0.000  -2.415   0.000   0.000   0.000   0.000   2.986   0.000   0.000   0.000
 -0.000   0.000   0.000  -0.000  -0.000  -0.000  -0.000  -0.000  -2.307   0.000  -0.094   0.000   0.000   2.336   0.000   0.019
  0.000   0.000   0.000   0.000   0.000  -0.000   0.000   0.000  -0.000  -1.931   0.000  -0.000   0.000   0.000   2.241  -0.000
 -0.000   0.000  -0.000   0.000   0.000  -0.000   0.000   0.000  -0.094   0.000  -2.192   0.000   0.000   0.019  -0.000   2.310
  0.000  -0.000  -0.000   0.000  -0.000   0.000   0.000   0.000  -0.132  -0.000   0.225   0.000   0.000   0.103   0.000  -0.176
  0.000   0.000   0.000   0.000   0.000   0.000  -0.000   0.000   0.009   0.000  -0.015   0.000   0.000  -0.006   0.000   0.010
 total augmentation occupancy for first ion, spin component:           2
 -0.002   0.000   0.000  -0.008   0.000   0.000   0.000   0.000   0.000   0.000   0.000   0.000  -0.000  -0.000   0.000   0.000
  0.000  -0.002   0.000   0.000  -0.008   0.000   0.000   0.000   0.000   0.000   0.000   0.000   0.000  -0.000   0.000  -0.000
  0.000   0.000  -0.002   0.000   0.000  -0.009   0.000   0.000  -0.000   0.000   0.000   0.000   0.000  -0.000  -0.000   0.000
 -0.008   0.000   0.000  -0.004   0.000   0.000  -0.000   0.000   0.000   0.000   0.000   0.000   0.000   0.000   0.000  -0.000
  0.000  -0.008   0.000   0.000  -0.004   0.000   0.000   0.000   0.000   0.000  -0.000   0.000  -0.000  -0.000   0.000   0.000
  0.000   0.000  -0.009   0.000   0.000  -0.009   0.000  -0.000   0.000   0.000   0.000  -0.000   0.000   0.000  -0.000   0.000
  0.000   0.000   0.000  -0.000   0.000   0.000   2.252   0.000   0.000  -0.000  -0.000  -1.001  -0.000   0.000  -0.000   0.000
  0.000   0.000   0.000   0.000   0.000  -0.000   0.000   1.802   0.000   0.000   0.000   0.000  -0.621   0.000  -0.000  -0.000
  0.000   0.000  -0.000   0.000   0.000   0.000   0.000   0.000   2.604  -0.000   0.093   0.000  -0.000  -1.105   0.000  -0.097
  0.000   0.000   0.000   0.000   0.000   0.000  -0.000   0.000  -0.000   2.240   0.000  -0.000   0.000   0.000  -0.993  -0.000
  0.000   0.000   0.000   0.000  -0.000   0.000  -0.000   0.000   0.093   0.000   2.487   0.000   0.000  -0.097  -0.000  -0.987
  0.000   0.000   0.000   0.000   0.000  -0.000  -1.001   0.000   0.000  -0.000   0.000   0.236  -0.000   0.000   0.000  -0.000
 -0.000   0.000   0.000   0.000  -0.000   0.000  -0.000  -0.621  -0.000   0.000   0.000  -0.000  -0.073   0.000   0.000   0.000
 -0.000  -0.000  -0.000   0.000  -0.000   0.000   0.000   0.000  -1.105   0.000  -0.097   0.000   0.000   0.313  -0.000   0.107
  0.000   0.000  -0.000   0.000   0.000  -0.000  -0.000  -0.000   0.000  -0.993  -0.000   0.000   0.000  -0.000   0.231  -0.000
  0.000  -0.000   0.000  -0.000   0.000   0.000   0.000  -0.000  -0.097  -0.000  -0.987  -0.000   0.000   0.107  -0.000   0.185
  0.000   0.000   0.000  -0.000  -0.000   0.000   0.000   0.000  -0.029  -0.000   0.046  -0.000   0.000   0.029  -0.000  -0.049
  0.000  -0.000   0.000   0.000  -0.000   0.000   0.000   0.000   0.003  -0.000  -0.006   0.000   0.000  -0.001   0.000   0.002


------------------------ aborting loop because EDIFF is reached ----------------------------------------





 total charge

# of ion       s       p       d       tot
------------------------------------------
    1        0.382   6.398   6.113  12.892
    2        0.382   6.397   6.113  12.892
    3        0.382   6.398   6.113  12.892
    4        0.382   6.398   6.113  12.893
    5        0.382   6.397   6.113  12.892
    6        0.382   6.397   6.113  12.892
    7        0.382   6.398   6.113  12.892
    8        0.382   6.397   6.113  12.892
    9        0.382   6.398   6.113  12.892
   10        0.826   0.853   8.084   9.763
   11        0.826   0.853   8.084   9.762
   12        0.826   0.853   8.084   9.762
--------------------------------------------------
tot          5.914  60.136  79.267 145.318



 magnetization (x)

# of ion       s       p       d       tot
------------------------------------------
    1       -0.004  -0.014   2.389   2.372
    2       -0.003  -0.014   2.391   2.374
    3       -0.004  -0.014   2.389   2.372
    4       -0.004  -0.014   2.390   2.372
    5       -0.004  -0.014   2.391   2.374
    6       -0.004  -0.014   2.391   2.374
    7       -0.004  -0.014   2.389   2.372
    8       -0.003  -0.014   2.391   2.374
    9       -0.004  -0.014   2.389   2.372
   10       -0.037  -0.097   0.342   0.208
   11       -0.037  -0.097   0.342   0.208
   12       -0.037  -0.097   0.342   0.208
--------------------------------------------------
tot         -0.143  -0.418  22.540  21.978
 
    FORLOC:  cpu time      0.0009: real time      0.0009
    FORNL :  cpu time      0.6467: real time      0.6500
    STRESS:  cpu time      4.0662: real time      4.0993
    FORCOR:  cpu time      0.0198: real time      0.0199
    OFIELD:  cpu time      0.0002: real time      0.0001

  FORCE on cell =-STRESS in cart. coord.  units (eV):
  Direction    XX          YY          ZZ          XY          YZ          ZX
  --------------------------------------------------------------------------------------
  Alpha Z  1224.38942  1224.38942  1224.38942
  Ewald   -6267.20544 -6267.20544 -6267.31757    -0.00000     0.00000     0.00000
  Hartree  1769.00608  1769.00608  1768.83645    -0.00000    -0.00000    -0.00000
  E(xc)    -947.88924  -947.88924  -947.89114    -0.00000    -0.00000    -0.00000
  Local    1288.21080  1288.21080  1288.59233     0.00000    -0.00000    -0.00000
  n-local  -190.40223  -203.14156  -196.90613    16.71238    -0.06167    -0.21355
  augment  1434.50394  1434.50394  1434.49233    -0.00000     0.00000     0.00000
  Kinetic  1723.84830  1710.32251  1717.09818     1.48083     0.32470     0.03812
  Fock        0.00000     0.00000     0.00000     0.00000     0.00000     0.00000
  -------------------------------------------------------------------------------------
  Total      21.32907    21.32907    21.29387     0.00000     0.00000     0.00000
  in kB     245.84855   245.84855   245.44282     0.00000     0.00000     0.00000
  external pressure =      245.71 kB  Pullay stress =        0.00 kB


 VOLUME and BASIS-vectors are now :
 -----------------------------------------------------------------------------
  energy-cutoff  :      520.00
  volume of cell :      139.00
      direct lattice vectors                 reciprocal lattice vectors
     3.591569190  0.000000000  0.000000000     0.278429830  0.000000000  0.000000000
     0.000000000  3.591569190  0.000000000     0.000000000  0.278429830  0.000000000
    -0.000000000 -0.000000000 10.775720682     0.000000000  0.000000000  0.092801218

  length of vectors
     3.591569190  3.591569190 10.775720682     0.278429830  0.278429830  0.092801218


 FORCES acting on ions:
    Electron-Ion                     Ewald-Force                    Non-Local-Force
 -----------------------------------------------------------------------------------------------
   0.245E-13 0.679E-12 -.122E+01   0.512E-13 -.275E-13 0.122E+01   0.206E-21 0.932E-21 0.319E-02
   0.223E-13 0.107E-11 -.433E-12   0.342E-13 -.109E-13 0.512E-12   0.794E-24 0.259E-24 0.614E-23
   0.219E-13 -.338E-12 0.122E+01   0.193E-13 -.136E-13 -.122E+01   -.131E-20 0.885E-21 -.319E-02
   0.102E-11 0.780E-11 0.534E-11   0.426E-13 0.123E-13 -.227E-12   -.423E-24 -.313E-24 -.440E-23
   0.103E-11 0.704E-11 -.154E+01   -.581E-13 -.230E-13 0.154E+01   -.198E-20 0.170E-20 0.703E-02
   0.103E-11 0.705E-11 0.154E+01   0.926E-13 0.109E-13 -.154E+01   0.108E-20 0.105E-20 -.703E-02
   0.105E-11 0.940E-14 -.122E+01   -.372E-13 0.544E-14 0.122E+01   -.261E-20 0.503E-21 0.319E-02
   0.104E-11 0.208E-13 0.219E-11   -.417E-13 0.227E-13 0.284E-12   -.126E-25 -.829E-24 -.744E-23
   0.103E-11 0.172E-13 0.122E+01   -.109E-13 0.146E-13 -.122E+01   0.252E-20 -.384E-21 -.319E-02
   -.293E-13 -.276E-13 0.195E-12   -.433E-13 0.197E-13 -.227E-12   0.588E-23 0.744E-23 0.467E-23
   -.293E-13 -.276E-13 -.840E+00   0.394E-13 0.106E-13 0.840E+00   0.453E-20 -.188E-20 0.537E-03
   -.293E-13 -.270E-13 0.840E+00   -.401E-13 0.147E-13 -.840E+00   0.201E-20 0.141E-20 -.537E-03
 -----------------------------------------------------------------------------------------------
   0.621E-11 0.234E-10 -.234E-11   0.480E-13 0.360E-13 0.271E-13   0.446E-20 0.423E-20 0.434E-18
 
 
 POSITION                                       TOTAL-FORCE (eV/Angst)
 -----------------------------------------------------------------------------------
     -0.00000      1.79578      1.79550        -0.000000     -0.000000      0.003461
     -0.00000      1.79578      5.38786         0.000000      0.000000      0.000000
     -0.00000      1.79578      8.98022         0.000000      0.000000     -0.003461
      1.79578      1.79578      0.00000        -0.000000     -0.000000      0.000000
      1.79578      1.79578      3.59115        -0.000000     -0.000000      0.002796
      1.79578      1.79578      7.18457         0.000000      0.000000     -0.002796
      1.79578     -0.00000      1.79550        -0.000000     -0.000000      0.003461
      1.79578     -0.00000      5.38786         0.000000      0.000000      0.000000
      1.79578     -0.00000      8.98022         0.000000      0.000000     -0.003461
      0.00000      0.00000      0.00000         0.000000      0.000000      0.000000
     -0.00000     -0.00000      3.59168        -0.000000     -0.000000      0.000369
     -0.00000     -0.00000      7.18405         0.000000      0.000000     -0.000369
 -----------------------------------------------------------------------------------
    total drift:                                0.000000      0.000000     -0.000000


--------------------------------------------------------------------------------------------------------



  FREE ENERGIE OF THE ION-ELECTRON SYSTEM (eV)
  ---------------------------------------------------
  free  energy   TOTEN  =       -92.25065340 eV

  energy  without entropy=      -92.25364930  energy(sigma->0) =      -92.25165204
 
 d Force = 0.1051606E-04[-0.958E-05, 0.306E-04]  d Energy = 0.4214555E-05 0.630E-05
 d Force =-0.1918848E-02[-0.371E-02,-0.131E-03]  d Ewald  =-0.1886790E-02-0.321E-04


--------------------------------------------------------------------------------------------------------


    POTLOK:  cpu time      0.0302: real time      0.0304


--------------------------------------------------------------------------------------------------------


 Steepest descent step on ions:
 trial-energy change:   -0.000004  1 .order   -0.000017   -0.000038    0.000005
  (g-gl).g = 0.380E-04      g.g   = 0.380E-04  gl.gl    = 0.000E+00
 g(Force)  = 0.306E-04   g(Stress)= 0.739E-05 ortho     = 0.000E+00
 gamma     =   0.00000
 trial     =   1.00000
 opt step  =   0.45592  (harmonic =   0.89158) maximal distance =0.00025664
 next E    =   -92.250657   (d E  =  -0.00001)


--------------------------------------------------------------------------------------------------------


  
 reached required accuracy - stopping structural energy minimisation
     LOOP+:  cpu time     43.7272: real time     44.2298
    4ORBIT:  cpu time      0.0000: real time      0.0000



 total charge

# of ion       s       p       d       tot
------------------------------------------
    1        0.382   6.398   6.113  12.892
    2        0.382   6.397   6.113  12.892
    3        0.382   6.398   6.113  12.892
    4        0.382   6.398   6.113  12.893
    5        0.382   6.397   6.113  12.892
    6        0.382   6.397   6.113  12.892
    7        0.382   6.398   6.113  12.892
    8        0.382   6.397   6.113  12.892
    9        0.382   6.398   6.113  12.892
   10        0.826   0.853   8.084   9.763
   11        0.826   0.853   8.084   9.762
   12        0.826   0.853   8.084   9.762
--------------------------------------------------
tot          5.914  60.136  79.267 145.318



 magnetization (x)

# of ion       s       p       d       tot
------------------------------------------
    1       -0.004  -0.014   2.389   2.372
    2       -0.003  -0.014   2.391   2.374
    3       -0.004  -0.014   2.389   2.372
    4       -0.004  -0.014   2.390   2.372
    5       -0.004  -0.014   2.391   2.374
    6       -0.004  -0.014   2.391   2.374
    7       -0.004  -0.014   2.389   2.372
    8       -0.003  -0.014   2.391   2.374
    9       -0.004  -0.014   2.389   2.372
   10       -0.037  -0.097   0.342   0.208
   11       -0.037  -0.097   0.342   0.208
   12       -0.037  -0.097   0.342   0.208
--------------------------------------------------
tot         -0.143  -0.418  22.540  21.978
 

 total amount of memory used by VASP MPI-rank0   258808. kBytes
=======================================================================

   base      :      30000. kBytes
   nonl-proj :      92073. kBytes
   fftplans  :        848. kBytes
   grid      :       6490. kBytes
   one-center:        373. kBytes
   wavefun   :     129024. kBytes
 
  
  
 General timing and accounting informations for this job:
 ========================================================
  
                  Total CPU time used (sec):      259.608
                            User time (sec):      252.794
                          System time (sec):        6.813
                         Elapsed time (sec):      268.433
  
                   Maximum memory used (kb):     1168272.
                   Average memory used (kb):          N/A
  
                          Minor page faults:       196120
                          Major page faults:          142
                 Voluntary context switches:         9387
