       N       E                     dE             d eps       ncg     rms          ort
DAV:   1     0.177207953674E+04    0.17721E+04   -0.91754E+04 10752   0.194E+03
DAV:   2     0.608955249891E+01   -0.17660E+04   -0.16775E+04 10752   0.477E+02
DAV:   3    -0.102597089714E+03   -0.10869E+03   -0.10725E+03 10752   0.128E+02
DAV:   4    -0.104257137680E+03   -0.16600E+01   -0.16597E+01 10752   0.157E+01
DAV:   5    -0.104292148232E+03   -0.35011E-01   -0.35010E-01 10752   0.220E+00
SDA:   6    -0.431171213871E+02    0.61175E+02   -0.35010E-01 10752   0.691E+03 0.000E+00
CGA:   7    -0.612953856319E+02   -0.18178E+02   -0.13782E+02 10752   0.204E+03 0.209E+03
CGA:   8    -0.777532217197E+02   -0.16458E+02   -0.15544E+02 10752   0.359E+03 0.105E+02
CGA:   9    -0.860077767823E+02   -0.82546E+01   -0.87308E+01 10752   0.578E+02-0.804E+01
CGA:  10    -0.871043933112E+02   -0.10966E+01   -0.12184E+01 10752   0.335E+02-0.456E+01
CGA:  11    -0.887599822202E+02   -0.16556E+01   -0.16423E+01 10752   0.388E+02 0.448E+00
CGA:  12    -0.897622960443E+02   -0.10023E+01   -0.75944E+00 10752   0.203E+02 0.128E+02
CGA:  13    -0.908035007870E+02   -0.10412E+01   -0.92597E+00 10752   0.240E+02 0.334E+01
CGA:  14    -0.915512290996E+02   -0.74773E+00   -0.73056E+00 10752   0.735E+01 0.767E+00
CGA:  15    -0.917003714896E+02   -0.14914E+00   -0.16493E+00 10752   0.459E+01-0.658E+00
CGA:  16    -0.919808643163E+02   -0.28049E+00   -0.28487E+00 10752   0.103E+02-0.341E-01
CGA:  17    -0.922574391179E+02   -0.27657E+00   -0.27329E+00 10752   0.402E+01 0.120E+00
CGA:  18    -0.924107472699E+02   -0.15331E+00   -0.15246E+00 10752   0.460E+01 0.182E-01
CGA:  19    -0.925507474139E+02   -0.14000E+00   -0.14356E+00 10752   0.127E+01-0.962E-01
CGA:  20    -0.925767114205E+02   -0.25964E-01   -0.26927E-01 10752   0.601E+00-0.390E-01
CGA:  21    -0.926126945864E+02   -0.35983E-01   -0.36071E-01 10752   0.104E+01-0.480E-03
CGA:  22    -0.926430585015E+02   -0.30364E-01   -0.30990E-01 10752   0.459E+00-0.180E-01
CGA:  23    -0.926626124252E+02   -0.19554E-01   -0.19730E-01 10752   0.522E+00-0.321E-02
CGA:  24    -0.926786783701E+02   -0.16066E-01   -0.16529E-01 10752   0.140E+00-0.124E-01
CGA:  25    -0.926826907650E+02   -0.40124E-02   -0.40346E-02 10752   0.111E+00-0.749E-03
CGA:  26    -0.926902636000E+02   -0.75728E-02   -0.75898E-02 10752   0.144E+00 0.101E-04
CGA:  27    -0.926945396552E+02   -0.42761E-02   -0.43434E-02 10752   0.864E-01-0.183E-02
CGA:  28    -0.927003978400E+02   -0.58582E-02   -0.58815E-02 10752   0.114E+00 0.164E-03
CGA:  29    -0.927033723071E+02   -0.29745E-02   -0.29991E-02 10752   0.328E-01-0.742E-03
CGA:  30    -0.927056588575E+02   -0.22866E-02   -0.22867E-02 10752   0.684E-01 0.258E-04
CGA:  31    -0.927082584945E+02   -0.25996E-02   -0.26231E-02 10752   0.250E-01-0.331E-03
CGA:  32    -0.927095373893E+02   -0.12789E-02   -0.12821E-02 10752   0.363E-01-0.119E-04
CGA:  33    -0.927110971734E+02   -0.15598E-02   -0.15628E-02 10752   0.137E-01-0.483E-04
CGA:  34    -0.927117345131E+02   -0.63734E-03   -0.63594E-03 10752   0.184E-01 0.108E-05
CGA:  35    -0.927126477176E+02   -0.91320E-03   -0.91309E-03 10752   0.608E-02-0.153E-04
CGA:  36    -0.927128273065E+02   -0.17959E-03   -0.17927E-03 10752   0.400E-02-0.335E-05
SDA:  37    -0.927131205602E+02   -0.29325E-03   -0.29323E-03 10752   0.393E-02-0.128E-04
CGA:  38    -0.927132384699E+02   -0.11791E-03   -0.11749E-03 10752   0.137E-02 0.102E-04
CGA:  39    -0.927133551837E+02   -0.11671E-03   -0.11680E-03 10752   0.123E-02-0.402E-05
CGA:  40    -0.927135469176E+02   -0.19173E-03   -0.19303E-03 10752   0.169E-02-0.134E-04
CGA:  41    -0.927136016179E+02   -0.54700E-04   -0.54523E-04 10752   0.611E-03-0.355E-05
CGA:  42    -0.927136852071E+02   -0.83589E-04   -0.83774E-04 10752   0.328E-03-0.148E-05
CGA:  43    -0.927137210640E+02   -0.35857E-04   -0.35834E-04 10752   0.188E-03 0.261E-05
CGA:  44    -0.927137524605E+02   -0.31397E-04   -0.30793E-04 10752   0.567E-03 0.875E-05
CGA:  45    -0.927137771340E+02   -0.24674E-04   -0.24940E-04 10752   0.134E-03 0.881E-05
CGA:  46    -0.927137859832E+02   -0.88492E-05   -0.89096E-05 10752   0.416E-04 0.484E-05
CGA:  47    -0.927137889102E+02   -0.29270E-05   -0.29427E-05 10752   0.784E-04 0.237E-05
CGA:  48    -0.927137978104E+02   -0.89002E-05   -0.88418E-05 10752   0.133E-04 0.338E-05
CGA:  49    -0.927137993267E+02   -0.15163E-05   -0.22245E-05 10752   0.104E-03-0.799E-05
CGA:  50    -0.927138015608E+02   -0.22341E-05   -0.21775E-05 10752   0.520E-05 0.293E-06
CGA:  51    -0.927137959686E+02    0.55923E-05   -0.29975E-05 10752   0.196E-03-0.178E-04
CGA:  52    -0.927138021511E+02   -0.61826E-05   -0.62461E-05 10752   0.469E-04 0.187E-05
CGA:  53    -0.927138035237E+02   -0.13726E-05   -0.14405E-05 10752   0.345E-05 0.141E-05
CGA:  54    -0.927138038202E+02   -0.29649E-06   -0.34674E-06 10752   0.714E-06 0.205E-05
   1 F= -.92713804E+02 E0= -.92715032E+02  d E =-.927138E+02  mag=     8.5811
       N       E                     dE             d eps       ncg     rms          ort
SDA:   1    -0.927068121149E+02    0.69914E-02    0.00000E+00 10752   0.199E-01 0.000E+00
CGA:   2    -0.927099861770E+02   -0.31741E-02   -0.31738E-02 10752   0.612E-01 0.591E-05
CGA:   3    -0.927121050344E+02   -0.21189E-02   -0.21127E-02 10752   0.743E-02 0.142E-03
CGA:   4    -0.927132065838E+02   -0.11015E-02   -0.11015E-02 10752   0.102E-01 0.488E-05
CGA:   5    -0.927136326483E+02   -0.42606E-03   -0.42651E-03 10752   0.457E-02 0.125E-05
CGA:   6    -0.927138222581E+02   -0.18961E-03   -0.18969E-03 10752   0.644E-03 0.246E-05
CGA:   7    -0.927139774888E+02   -0.15523E-03   -0.15547E-03 10752   0.249E-03-0.202E-05
CGA:   8    -0.927139928668E+02   -0.15378E-04   -0.15378E-04 10752   0.235E-03-0.587E-07
CGA:   9    -0.927140038729E+02   -0.11006E-04   -0.11001E-04 10752   0.149E-03-0.457E-07
CGA:  10    -0.927140188960E+02   -0.15023E-04   -0.15018E-04 10752   0.394E-04-0.262E-06
CGA:  11    -0.927140217249E+02   -0.28289E-05   -0.28332E-05 10752   0.619E-04 0.905E-07
CGA:  12    -0.927140251826E+02   -0.34577E-05   -0.34729E-05 10752   0.189E-04 0.250E-06
CGA:  13    -0.927140269313E+02   -0.17486E-05   -0.17478E-05 10752   0.679E-05-0.216E-07
CGA:  14    -0.927140276987E+02   -0.76745E-06   -0.76671E-06 10752   0.157E-04-0.104E-07
   2 F= -.92714028E+02 E0= -.92715307E+02  d E =-.223879E-03  mag=     8.5832
       N       E                     dE             d eps       ncg     rms          ort
SDA:   1    -0.926493828231E+02    0.64644E-01    0.00000E+00 10752   0.174E+00 0.000E+00
CGA:   2    -0.926865103198E+02   -0.37127E-01   -0.37121E-01 10752   0.349E+00 0.521E-04
CGA:   3    -0.926965861045E+02   -0.10076E-01   -0.10025E-01 10752   0.847E-01 0.148E-02
CGA:   4    -0.927056203193E+02   -0.90342E-02   -0.90355E-02 10752   0.675E-01 0.178E-03
CGA:   5    -0.927116423151E+02   -0.60220E-02   -0.60204E-02 10752   0.286E-01-0.504E-05
CGA:   6    -0.927124342419E+02   -0.79193E-03   -0.79390E-03 10752   0.683E-02-0.504E-04
CGA:   7    -0.927135385522E+02   -0.11043E-02   -0.11049E-02 10752   0.550E-02-0.924E-05
CGA:   8    -0.927139537743E+02   -0.41522E-03   -0.41518E-03 10752   0.238E-02-0.302E-05
CGA:   9    -0.927140286857E+02   -0.74911E-04   -0.74846E-04 10752   0.105E-02 0.445E-06
CGA:  10    -0.927141774106E+02   -0.14872E-03   -0.14868E-03 10752   0.714E-03 0.974E-06
CGA:  11    -0.927142286970E+02   -0.51286E-04   -0.51329E-04 10752   0.428E-03 0.125E-05
CGA:  12    -0.927142454789E+02   -0.16782E-04   -0.16815E-04 10752   0.252E-03 0.544E-06
CGA:  13    -0.927142759314E+02   -0.30453E-04   -0.30426E-04 10752   0.618E-04 0.130E-05
CGA:  14    -0.927142806105E+02   -0.46791E-05   -0.46734E-05 10752   0.127E-03-0.238E-06
CGA:  15    -0.927142890052E+02   -0.83947E-05   -0.83664E-05 10752   0.231E-04-0.855E-06
CGA:  16    -0.927142907793E+02   -0.17741E-05   -0.17703E-05 10752   0.135E-04-0.181E-06
CGA:  17    -0.927142918600E+02   -0.10807E-05   -0.10817E-05 10752   0.240E-04 0.403E-07
CGA:  18    -0.927142931516E+02   -0.12916E-05   -0.12976E-05 10752   0.299E-05 0.148E-06
CGA:  19    -0.927142934592E+02   -0.30759E-06   -0.31048E-06 10752   0.340E-05-0.183E-06
   3 F= -.92714293E+02 E0= -.92715656E+02  d E =-.489639E-03  mag=     8.5889
       N       E                     dE             d eps       ncg     rms          ort
SDA:   1    -0.926981578969E+02    0.16135E-01    0.00000E+00 10752   0.984E-01 0.000E+00
CGA:   2    -0.927009001577E+02   -0.27423E-02   -0.27559E-02 10752   0.455E-01-0.387E-03
CGA:   3    -0.927102102296E+02   -0.93101E-02   -0.93107E-02 10752   0.158E-01-0.589E-05
CGA:   4    -0.927122586430E+02   -0.20484E-02   -0.20479E-02 10752   0.259E-01 0.133E-04
CGA:   5    -0.927132985477E+02   -0.10399E-02   -0.10396E-02 10752   0.116E-01 0.125E-04
CGA:   6    -0.927138684982E+02   -0.56995E-03   -0.57041E-03 10752   0.165E-02-0.368E-05
CGA:   7    -0.927141661448E+02   -0.29765E-03   -0.29807E-03 10752   0.382E-02-0.463E-05
CGA:   8    -0.927142893936E+02   -0.12325E-03   -0.12323E-03 10752   0.833E-03-0.345E-05
CGA:   9    -0.927143618259E+02   -0.72432E-04   -0.72425E-04 10752   0.394E-03-0.141E-05
CGA:  10    -0.927144092017E+02   -0.47376E-04   -0.47360E-04 10752   0.736E-03 0.533E-06
CGA:  11    -0.927144331503E+02   -0.23949E-04   -0.23977E-04 10752   0.119E-03 0.544E-06
CGA:  12    -0.927144508716E+02   -0.17721E-04   -0.17666E-04 10752   0.836E-04 0.948E-06
CGA:  13    -0.927144563680E+02   -0.54964E-05   -0.55046E-05 10752   0.415E-04 0.303E-06
CGA:  14    -0.927144578125E+02   -0.14444E-05   -0.14452E-05 10752   0.210E-04 0.196E-07
CGA:  15    -0.927144612294E+02   -0.34169E-05   -0.34533E-05 10752   0.562E-05-0.499E-06
CGA:  16    -0.927144615504E+02   -0.32100E-06   -0.32152E-06 10752   0.664E-05 0.122E-07
   4 F= -.92714462E+02 E0= -.92715876E+02  d E =-.168091E-03  mag=     8.5957
       N       E                     dE             d eps       ncg     rms          ort
SDA:   1    -0.926705541573E+02    0.43907E-01    0.00000E+00 10752   0.152E+00 0.000E+00
CGA:   2    -0.926780662285E+02   -0.75121E-02   -0.75302E-02 10752   0.209E+00-0.154E-03
CGA:   3    -0.927012246657E+02   -0.23158E-01   -0.23161E-01 10752   0.608E-01-0.737E-04
CGA:   4    -0.927071479070E+02   -0.59232E-02   -0.59228E-02 10752   0.494E-01 0.325E-04
CGA:   5    -0.927106171502E+02   -0.34692E-02   -0.34694E-02 10752   0.555E-01 0.107E-04
CGA:   6    -0.927127814694E+02   -0.21643E-02   -0.21661E-02 10752   0.543E-02-0.125E-04
CGA:   7    -0.927134994100E+02   -0.71794E-03   -0.71825E-03 10752   0.774E-02-0.688E-05
CGA:   8    -0.927138616292E+02   -0.36222E-03   -0.36231E-03 10752   0.617E-02-0.536E-05
CGA:   9    -0.927142192234E+02   -0.35759E-03   -0.35743E-03 10752   0.961E-03-0.277E-05
CGA:  10    -0.927144037677E+02   -0.18454E-03   -0.18460E-03 10752   0.929E-03-0.514E-06
CGA:  11    -0.927144624119E+02   -0.58644E-04   -0.58660E-04 10752   0.696E-03 0.662E-06
CGA:  12    -0.927144883085E+02   -0.25897E-04   -0.25941E-04 10752   0.300E-03 0.794E-06
CGA:  13    -0.927145249695E+02   -0.36661E-04   -0.36590E-04 10752   0.656E-04 0.199E-05
CGA:  14    -0.927145287053E+02   -0.37357E-05   -0.37338E-05 10752   0.944E-04-0.345E-07
CGA:  15    -0.927145373790E+02   -0.86737E-05   -0.86760E-05 10752   0.238E-04-0.385E-06
CGA:  16    -0.927145390850E+02   -0.17060E-05   -0.17036E-05 10752   0.128E-04-0.148E-06
CGA:  17    -0.927145398429E+02   -0.75794E-06   -0.75802E-06 10752   0.184E-04-0.281E-08
CGA:  18    -0.927145412045E+02   -0.13615E-05   -0.13609E-05 10752   0.378E-05 0.163E-07
CGA:  19    -0.927145415408E+02   -0.33632E-06   -0.33665E-06 10752   0.296E-05-0.109E-06
   5 F= -.92714542E+02 E0= -.92716038E+02  d E =-.248082E-03  mag=     8.6072
       N       E                     dE             d eps       ncg     rms          ort
SDA:   1    -0.927126781752E+02    0.18630E-02    0.00000E+00 10752   0.959E-02 0.000E+00
CGA:   2    -0.927129966247E+02   -0.31845E-03   -0.31854E-03 10752   0.577E-02-0.209E-05
CGA:   3    -0.927139072160E+02   -0.91059E-03   -0.91074E-03 10752   0.401E-02-0.200E-05
CGA:   4    -0.927141885198E+02   -0.28130E-03   -0.28125E-03 10752   0.221E-02-0.114E-05
CGA:   5    -0.927142890085E+02   -0.10049E-03   -0.10048E-03 10752   0.200E-02-0.888E-06
CGA:   6    -0.927144574683E+02   -0.16846E-03   -0.16847E-03 10752   0.316E-03-0.282E-05
CGA:   7    -0.927144842548E+02   -0.26786E-04   -0.26785E-04 10752   0.262E-03 0.473E-06
CGA:   8    -0.927144971511E+02   -0.12896E-04   -0.12911E-04 10752   0.248E-03 0.430E-06
CGA:   9    -0.927145202161E+02   -0.23065E-04   -0.23048E-04 10752   0.404E-04 0.142E-05
CGA:  10    -0.927145238892E+02   -0.36732E-05   -0.36722E-05 10752   0.937E-04 0.632E-07
CGA:  11    -0.927145289481E+02   -0.50589E-05   -0.50575E-05 10752   0.206E-04-0.363E-07
CGA:  12    -0.927145307286E+02   -0.17805E-05   -0.17820E-05 10752   0.118E-04-0.268E-06
CGA:  13    -0.927145320027E+02   -0.12741E-05   -0.12780E-05 10752   0.120E-04-0.122E-06
CGA:  14    -0.927145323315E+02   -0.32880E-06   -0.32893E-06 10752   0.175E-05-0.478E-08
   6 F= -.92714532E+02 E0= -.92716014E+02  d E =-.238872E-03  mag=     8.6053
       N       E                     dE             d eps       ncg     rms          ort
SDA:   1    -0.927076077802E+02    0.69242E-02    0.00000E+00 10752   0.188E-01 0.000E+00
CGA:   2    -0.927094136695E+02   -0.18059E-02   -0.18060E-02 10752   0.505E-01-0.775E-05
CGA:   3    -0.927123186841E+02   -0.29050E-02   -0.29054E-02 10752   0.112E-01-0.196E-05
CGA:   4    -0.927132706446E+02   -0.95196E-03   -0.95196E-03 10752   0.753E-02-0.343E-05
CGA:   5    -0.927138469438E+02   -0.57630E-03   -0.57629E-03 10752   0.992E-02-0.270E-05
CGA:   6    -0.927142426808E+02   -0.39574E-03   -0.39545E-03 10752   0.725E-03-0.920E-06
CGA:   7    -0.927143966530E+02   -0.15397E-03   -0.15336E-03 10752   0.810E-03 0.474E-05
CGA:   8    -0.927144586071E+02   -0.61954E-04   -0.61962E-04 10752   0.266E-03 0.677E-06
CGA:   9    -0.927144721027E+02   -0.13496E-04   -0.13503E-04 10752   0.312E-03 0.160E-06
CGA:  10    -0.927145008628E+02   -0.28760E-04   -0.28762E-04 10752   0.996E-04-0.246E-07
CGA:  11    -0.927145082604E+02   -0.73976E-05   -0.73942E-05 10752   0.110E-03-0.294E-06
CGA:  12    -0.927145127268E+02   -0.44665E-05   -0.44566E-05 10752   0.473E-04-0.222E-06
CGA:  13    -0.927145175350E+02   -0.48081E-05   -0.48133E-05 10752   0.875E-05-0.246E-06
CGA:  14    -0.927145187853E+02   -0.12503E-05   -0.12465E-05 10752   0.144E-04 0.945E-07
CGA:  15    -0.927145193721E+02   -0.58684E-06   -0.59125E-06 10752   0.628E-05 0.105E-06
   7 F= -.92714519E+02 E0= -.92715968E+02  d E =-.225913E-03  mag=     8.6009
       N       E                     dE             d eps       ncg     rms          ort
SDA:   1    -0.927138282899E+02    0.69050E-03    0.00000E+00 10752   0.216E-02 0.000E+00
CGA:   2    -0.927139848723E+02   -0.15658E-03   -0.15660E-03 10752   0.408E-02 0.118E-05
CGA:   3    -0.927142632304E+02   -0.27836E-03   -0.27836E-03 10752   0.186E-02 0.876E-06
CGA:   4    -0.927143902584E+02   -0.12703E-03   -0.12704E-03 10752   0.733E-03 0.473E-06
CGA:   5    -0.927144327094E+02   -0.42451E-04   -0.42472E-04 10752   0.964E-03 0.834E-06
CGA:   6    -0.927145007602E+02   -0.68051E-04   -0.68068E-04 10752   0.733E-04 0.174E-05
CGA:   7    -0.927145168069E+02   -0.16047E-04   -0.16253E-04 10752   0.130E-03-0.146E-05
CGA:   8    -0.927145207359E+02   -0.39289E-05   -0.39123E-05 10752   0.391E-04-0.304E-06
CGA:   9    -0.927145238268E+02   -0.30909E-05   -0.30897E-05 10752   0.265E-04-0.359E-07
CGA:  10    -0.927145264357E+02   -0.26089E-05   -0.26097E-05 10752   0.296E-04-0.445E-07
CGA:  11    -0.927145273522E+02   -0.91651E-06   -0.91439E-06 10752   0.607E-05-0.386E-07
CGA:  12    -0.927145285131E+02   -0.11609E-05   -0.11296E-05 10752   0.258E-05 0.295E-06
CGA:  13    -0.927145287502E+02   -0.23707E-06   -0.23656E-06 10752   0.116E-05 0.358E-07
   8 F= -.92714529E+02 E0= -.92715987E+02  d E =-.235291E-03  mag=     8.6021
       N       E                     dE             d eps       ncg     rms          ort
SDA:   1    -0.927133120507E+02    0.12165E-02    0.00000E+00 10752   0.450E-02 0.000E+00
CGA:   2    -0.927135098185E+02   -0.19777E-03   -0.19769E-03 10752   0.524E-02 0.143E-06
CGA:   3    -0.927141835059E+02   -0.67369E-03   -0.67365E-03 10752   0.133E-02 0.725E-06
CGA:   4    -0.927143578041E+02   -0.17430E-03   -0.17415E-03 10752   0.193E-02 0.318E-05
CGA:   5    -0.927144360664E+02   -0.78262E-04   -0.78351E-04 10752   0.892E-03 0.117E-05
CGA:   6    -0.927144860810E+02   -0.50015E-04   -0.50019E-04 10752   0.142E-03 0.211E-06
CGA:   7    -0.927145082430E+02   -0.22162E-04   -0.22235E-04 10752   0.229E-03-0.994E-06
CGA:   8    -0.927145175383E+02   -0.92954E-05   -0.92623E-05 10752   0.135E-03-0.689E-06
CGA:   9    -0.927145249322E+02   -0.73938E-05   -0.73724E-05 10752   0.286E-04-0.709E-06
CGA:  10    -0.927145304909E+02   -0.55588E-05   -0.55165E-05 10752   0.213E-04 0.378E-06
CGA:  11    -0.927145315172E+02   -0.10263E-05   -0.10313E-05 10752   0.168E-04 0.902E-07
CGA:  12    -0.927145325238E+02   -0.10066E-05   -0.10108E-05 10752   0.900E-05 0.161E-06
CGA:  13    -0.927145333783E+02   -0.85444E-06   -0.85201E-06 10752   0.171E-05 0.195E-06
   9 F= -.92714533E+02 E0= -.92716005E+02  d E =-.239919E-03  mag=     8.6040
       N       E                     dE             d eps       ncg     rms          ort
SDA:   1    -0.927142356780E+02    0.29685E-03    0.00000E+00 10752   0.789E-02 0.000E+00
CGA:   2    -0.927143887221E+02   -0.15304E-03   -0.15280E-03 10752   0.358E-03 0.104E-04
CGA:   3    -0.927144717866E+02   -0.83065E-04   -0.82943E-04 10752   0.397E-03 0.826E-06
CGA:   4    -0.927145037050E+02   -0.31918E-04   -0.31924E-04 10752   0.131E-03 0.540E-06
CGA:   5    -0.927145196963E+02   -0.15991E-04   -0.15964E-04 10752   0.217E-03 0.869E-06
CGA:   6    -0.927145262936E+02   -0.65973E-05   -0.66108E-05 10752   0.284E-04 0.221E-06
CGA:   7    -0.927145291846E+02   -0.28910E-05   -0.28958E-05 10752   0.248E-04-0.431E-06
CGA:   8    -0.927145307156E+02   -0.15310E-05   -0.15257E-05 10752   0.297E-04-0.195E-06
CGA:   9    -0.927145322395E+02   -0.15239E-05   -0.15156E-05 10752   0.510E-05-0.218E-06
CGA:  10    -0.927145329870E+02   -0.74748E-06   -0.75475E-06 10752   0.486E-05-0.106E-06
  10 F= -.92714533E+02 E0= -.92716010E+02  d E =-.239528E-03  mag=     8.6047
       N       E                     dE             d eps       ncg     rms          ort
SDA:   1    -0.927143727374E+02    0.15950E-03    0.00000E+00 10752   0.799E-02 0.000E+00
CGA:   2    -0.927145223364E+02   -0.14960E-03   -0.14924E-03 10752   0.345E-04 0.151E-04
CGA:   3    -0.927145256121E+02   -0.32757E-05   -0.32777E-05 10752   0.697E-04-0.255E-06
CGA:   4    -0.927145292039E+02   -0.35918E-05   -0.35873E-05 10752   0.303E-04-0.156E-06
CGA:   5    -0.927145312718E+02   -0.20679E-05   -0.20693E-05 10752   0.757E-05 0.634E-07
CGA:   6    -0.927145326276E+02   -0.13558E-05   -0.13424E-05 10752   0.114E-04 0.137E-06
CGA:   7    -0.927145329336E+02   -0.30600E-06   -0.30805E-06 10752   0.184E-05 0.326E-07
  11 F= -.92714533E+02 E0= -.92716011E+02  d E =-.239474E-03  mag=     8.6049
       N       E                     dE             d eps       ncg     rms          ort
SDA:   1    -0.927144718314E+02    0.60796E-04    0.00000E+00 10752   0.212E-02 0.000E+00
CGA:   2    -0.927145213184E+02   -0.49487E-04   -0.49536E-04 10752   0.255E-03-0.461E-06
CGA:   3    -0.927145306105E+02   -0.92922E-05   -0.93000E-05 10752   0.978E-05 0.192E-06
CGA:   4    -0.927145314592E+02   -0.84872E-06   -0.84830E-06 10752   0.229E-04 0.209E-08
CGA:   5    -0.927145329251E+02   -0.14659E-05   -0.14675E-05 10752   0.353E-05 0.121E-07
CGA:   6    -0.927145332496E+02   -0.32446E-06   -0.32680E-06 10752   0.221E-05-0.115E-06
  12 F= -.92714533E+02 E0= -.92716011E+02  d E =-.239790E-03  mag=     8.6048
       N       E                     dE             d eps       ncg     rms          ort
SDA:   1    -0.927116657376E+02    0.28672E-02    0.00000E+00 10752   0.125E-01 0.000E+00
CGA:   2    -0.927121281108E+02   -0.46237E-03   -0.46289E-03 10752   0.108E-01-0.100E-04
CGA:   3    -0.927136712710E+02   -0.15432E-02   -0.15434E-02 10752   0.447E-02-0.425E-05
CGA:   4    -0.927141039598E+02   -0.43269E-03   -0.43268E-03 10752   0.236E-02 0.109E-05
CGA:   5    -0.927143111147E+02   -0.20715E-03   -0.20715E-03 10752   0.384E-02 0.159E-05
CGA:   6    -0.927144604752E+02   -0.14936E-03   -0.14945E-03 10752   0.458E-03 0.410E-06
CGA:   7    -0.927145016801E+02   -0.41205E-04   -0.41206E-04 10752   0.433E-03-0.186E-06
CGA:   8    -0.927145287390E+02   -0.27059E-04   -0.27055E-04 10752   0.567E-03-0.219E-06
CGA:   9    -0.927145625572E+02   -0.33818E-04   -0.33801E-04 10752   0.600E-04-0.749E-06
CGA:  10    -0.927145748550E+02   -0.12298E-04   -0.12341E-04 10752   0.858E-04-0.332E-06
CGA:  11    -0.927145791451E+02   -0.42901E-05   -0.42814E-05 10752   0.558E-04-0.234E-06
CGA:  12    -0.927145812366E+02   -0.20915E-05   -0.20896E-05 10752   0.140E-04-0.395E-07
CGA:  13    -0.927145833308E+02   -0.20943E-05   -0.20705E-05 10752   0.604E-05 0.383E-06
CGA:  14    -0.927145837261E+02   -0.39528E-06   -0.39531E-06 10752   0.671E-05-0.193E-07
  13 F= -.92714584E+02 E0= -.92716080E+02  d E =-.504766E-04  mag=     8.6078
       N       E                     dE             d eps       ncg     rms          ort
SDA:   1    -0.927057902094E+02    0.87931E-02    0.00000E+00 10752   0.341E-01 0.000E+00
CGA:   2    -0.927072641349E+02   -0.14739E-02   -0.14756E-02 10752   0.373E-01-0.235E-04
CGA:   3    -0.927114259551E+02   -0.41618E-02   -0.41621E-02 10752   0.175E-01-0.999E-05
CGA:   4    -0.927130440429E+02   -0.16181E-02   -0.16183E-02 10752   0.681E-02-0.108E-04
CGA:   5    -0.927135988430E+02   -0.55480E-03   -0.55480E-03 10752   0.119E-01 0.110E-05
CGA:   6    -0.927141746033E+02   -0.57576E-03   -0.57611E-03 10752   0.157E-02 0.236E-05
CGA:   7    -0.927143026499E+02   -0.12805E-03   -0.12805E-03 10752   0.113E-02 0.336E-06
CGA:   8    -0.927143847323E+02   -0.82082E-04   -0.82077E-04 10752   0.192E-02-0.733E-06
CGA:   9    -0.927144905872E+02   -0.10585E-03   -0.10582E-03 10752   0.202E-03-0.135E-05
CGA:  10    -0.927145274261E+02   -0.36839E-04   -0.36899E-04 10752   0.262E-03-0.588E-06
CGA:  11    -0.927145413074E+02   -0.13881E-04   -0.13872E-04 10752   0.180E-03-0.286E-06
CGA:  12    -0.927145487242E+02   -0.74167E-05   -0.74115E-05 10752   0.526E-04-0.121E-06
CGA:  13    -0.927145558338E+02   -0.71097E-05   -0.70743E-05 10752   0.298E-04 0.698E-06
CGA:  14    -0.927145569409E+02   -0.11071E-05   -0.11107E-05 10752   0.181E-04 0.941E-07
CGA:  15    -0.927145582989E+02   -0.13580E-05   -0.13575E-05 10752   0.837E-05-0.392E-07
CGA:  16    -0.927145593978E+02   -0.10989E-05   -0.10945E-05 10752   0.368E-05 0.697E-07
CGA:  17    -0.927145595254E+02   -0.12761E-06   -0.12748E-06 10752   0.228E-05-0.136E-07
  14 F= -.92714560E+02 E0= -.92716086E+02  d E =-.262758E-04  mag=     8.6135
       N       E                     dE             d eps       ncg     rms          ort
SDA:   1    -0.927116824646E+02    0.28769E-02    0.00000E+00 10752   0.830E-02 0.000E+00
CGA:   2    -0.927124087293E+02   -0.72626E-03   -0.72627E-03 10752   0.192E-01-0.266E-05
CGA:   3    -0.927135217635E+02   -0.11130E-02   -0.11132E-02 10752   0.687E-02-0.547E-06
CGA:   4    -0.927140324327E+02   -0.51067E-03   -0.51066E-03 10752   0.231E-02-0.178E-06
CGA:   5    -0.927142806765E+02   -0.24824E-03   -0.24827E-03 10752   0.457E-02-0.155E-05
CGA:   6    -0.927144535341E+02   -0.17286E-03   -0.17272E-03 10752   0.448E-03-0.132E-05
CGA:   7    -0.927145044654E+02   -0.50931E-04   -0.50905E-04 10752   0.359E-03 0.886E-06
CGA:   8    -0.927145573029E+02   -0.52837E-04   -0.52812E-04 10752   0.131E-03 0.406E-06
CGA:   9    -0.927145655961E+02   -0.82933E-05   -0.83021E-05 10752   0.136E-03 0.326E-06
CGA:  10    -0.927145726174E+02   -0.70213E-05   -0.70317E-05 10752   0.885E-04 0.305E-06
CGA:  11    -0.927145816597E+02   -0.90423E-05   -0.90354E-05 10752   0.237E-04 0.402E-06
CGA:  12    -0.927145827705E+02   -0.11108E-05   -0.11108E-05 10752   0.266E-04-0.258E-07
CGA:  13    -0.927145852198E+02   -0.24493E-05   -0.24527E-05 10752   0.409E-05-0.317E-06
CGA:  14    -0.927145857662E+02   -0.54638E-06   -0.54617E-06 10752   0.485E-05-0.682E-08
  15 F= -.92714586E+02 E0= -.92716094E+02  d E =-.525166E-04  mag=     8.6107
