       N       E                     dE             d eps       ncg     rms          rms(c)
DAV:   1     0.177282467364E+04    0.17728E+04   -0.85468E+04 43008   0.175E+03
DAV:   2     0.609404856172E+01   -0.17667E+04   -0.16783E+04 43008   0.477E+02
DAV:   3    -0.102622091735E+03   -0.10872E+03   -0.10729E+03 50624   0.127E+02
DAV:   4    -0.104286729738E+03   -0.16646E+01   -0.16643E+01 45920   0.157E+01
DAV:   5    -0.104321760044E+03   -0.35030E-01   -0.35029E-01 52768   0.220E+00    0.355E+01
DAV:   6    -0.116121369398E+03   -0.11800E+02   -0.18374E+02 51776   0.687E+01    0.756E+01
DAV:   7    -0.107614441369E+03    0.85069E+01   -0.41827E+02 52576   0.553E+01    0.604E+01
DAV:   8    -0.948375715170E+02    0.12777E+02   -0.10550E+02 51392   0.423E+01    0.258E+01
DAV:   9    -0.103742612890E+03   -0.89050E+01   -0.11747E+02 52064   0.344E+01    0.585E+01
DAV:  10    -0.932455271570E+02    0.10497E+02   -0.12620E+02 51904   0.230E+01    0.222E+01
DAV:  11    -0.923293905341E+02    0.91614E+00   -0.19570E+01 51168   0.135E+01    0.139E+01
DAV:  12    -0.924968340137E+02   -0.16744E+00   -0.41800E+00 51648   0.657E+00    0.875E+00
DAV:  13    -0.928237089161E+02   -0.32687E+00   -0.31101E+00 51872   0.625E+00    0.102E+01
DAV:  14    -0.927518583216E+02    0.71851E-01   -0.32857E+00 51392   0.608E+00    0.658E+00
DAV:  15    -0.928138412192E+02   -0.61983E-01   -0.19895E+00 51520   0.632E+00    0.665E+00
DAV:  16    -0.926634109099E+02    0.15043E+00   -0.16172E+00 49728   0.478E+00    0.318E+00
DAV:  17    -0.926991862012E+02   -0.35775E-01   -0.25158E-01 51680   0.193E+00    0.288E+00
DAV:  18    -0.927158281151E+02   -0.16642E-01   -0.51207E-02 51040   0.108E+00    0.222E+00
DAV:  19    -0.927088305735E+02    0.69975E-02   -0.77897E-02 51808   0.133E+00    0.104E+00
DAV:  20    -0.927135853259E+02   -0.47548E-02   -0.18237E-02 52128   0.477E-01    0.710E-01
DAV:  21    -0.927153600661E+02   -0.17747E-02   -0.85163E-03 54176   0.408E-01    0.348E-01
DAV:  22    -0.927158222774E+02   -0.46221E-03   -0.22752E-03 51840   0.243E-01    0.289E-01
DAV:  23    -0.927159045199E+02   -0.82243E-04   -0.48380E-04 50560   0.111E-01    0.204E-01
DAV:  24    -0.927159218205E+02   -0.17301E-04   -0.83639E-04 51488   0.102E-01    0.668E-02
DAV:  25    -0.927159747672E+02   -0.52947E-04   -0.17098E-04 52320   0.514E-02    0.428E-02
DAV:  26    -0.927159849615E+02   -0.10194E-04   -0.42931E-05 52128   0.327E-02    0.249E-02
DAV:  27    -0.927159885064E+02   -0.35449E-05   -0.12363E-05 48352   0.177E-02    0.134E-02
DAV:  28    -0.927159895901E+02   -0.10837E-05   -0.24321E-06 28000   0.825E-03    0.707E-03
DAV:  29    -0.927159902308E+02   -0.64070E-06   -0.15170E-06 26496   0.419E-03
   1 F= -.92715990E+02 E0= -.92715990E+02  d E =0.000000E+00  mag=     8.5222
