       N       E                     dE             d eps       ncg     rms          ort
DAV:   1     0.177282659277E+04    0.17728E+04   -0.91999E+04 10752   0.194E+03
DAV:   2     0.608967843980E+01   -0.17667E+04   -0.16783E+04 10752   0.477E+02
DAV:   3    -0.102621960318E+03   -0.10871E+03   -0.10728E+03 10752   0.127E+02
DAV:   4    -0.104286500736E+03   -0.16645E+01   -0.16642E+01 10752   0.157E+01
DAV:   5    -0.104321531450E+03   -0.35031E-01   -0.35030E-01 10752   0.220E+00
SDA:   6    -0.432672661608E+02    0.61054E+02   -0.35030E-01 10752   0.674E+03 0.000E+00
CGA:   7    -0.611797632307E+02   -0.17912E+02   -0.13656E+02 10752   0.208E+03 0.198E+03
CGA:   8    -0.785992276676E+02   -0.17419E+02   -0.16371E+02 10752   0.342E+03 0.120E+02
CGA:   9    -0.861341195382E+02   -0.75349E+01   -0.82172E+01 10752   0.455E+02-0.194E+02
CGA:  10    -0.872366519762E+02   -0.11025E+01   -0.12877E+01 10752   0.419E+02-0.522E+01
CGA:  11    -0.889205836119E+02   -0.16839E+01   -0.15993E+01 10752   0.301E+02 0.216E+01
CGA:  12    -0.899066780979E+02   -0.98609E+00   -0.78261E+00 10752   0.213E+02 0.834E+01
CGA:  13    -0.913317924919E+02   -0.14251E+01   -0.13441E+01 10752   0.143E+02 0.175E+01
CGA:  14    -0.916492812745E+02   -0.31749E+00   -0.32868E+00 10752   0.343E+01-0.411E+00
CGA:  15    -0.919319238252E+02   -0.28264E+00   -0.28453E+00 10752   0.866E+01-0.522E-02
CGA:  16    -0.922464432056E+02   -0.31452E+00   -0.33164E+00 10752   0.409E+01-0.416E+00
CGA:  17    -0.924694944295E+02   -0.22305E+00   -0.22511E+00 10752   0.388E+01-0.196E-01
CGA:  18    -0.925662486949E+02   -0.96754E-01   -0.99454E-01 10752   0.488E+00-0.916E-01
CGA:  19    -0.925945820657E+02   -0.28333E-01   -0.28341E-01 10752   0.887E+00 0.144E-03
CGA:  20    -0.926457245455E+02   -0.51142E-01   -0.51583E-01 10752   0.432E+00-0.521E-02
CGA:  21    -0.926662497424E+02   -0.20525E-01   -0.20892E-01 10752   0.356E+00-0.558E-02
CGA:  22    -0.926775002881E+02   -0.11251E-01   -0.11367E-01 10752   0.835E-01-0.362E-02
CGA:  23    -0.926863232464E+02   -0.88230E-02   -0.88246E-02 10752   0.231E+00 0.960E-04
CGA:  24    -0.926948891722E+02   -0.85659E-02   -0.87620E-02 10752   0.544E-01-0.409E-02
CGA:  25    -0.927000181831E+02   -0.51290E-02   -0.51361E-02 10752   0.840E-01 0.240E-03
CGA:  26    -0.927031480757E+02   -0.31299E-02   -0.31476E-02 10752   0.482E-01-0.264E-03
CGA:  27    -0.927077677807E+02   -0.46197E-02   -0.46222E-02 10752   0.246E-01 0.176E-03
CGA:  28    -0.927088709247E+02   -0.11031E-02   -0.11090E-02 10752   0.299E-01-0.884E-04
CGA:  29    -0.927121152239E+02   -0.32443E-02   -0.32445E-02 10752   0.145E-01-0.461E-04
CGA:  30    -0.927128634126E+02   -0.74819E-03   -0.74472E-03 10752   0.120E-01 0.429E-05
CGA:  31    -0.927133174317E+02   -0.45402E-03   -0.45437E-03 10752   0.321E-02-0.315E-04
CGA:  32    -0.927138244044E+02   -0.50697E-03   -0.50761E-03 10752   0.866E-02-0.911E-05
CGA:  33    -0.927141085127E+02   -0.28411E-03   -0.28366E-03 10752   0.162E-02-0.137E-04
CGA:  34    -0.927142353903E+02   -0.12688E-03   -0.12661E-03 10752   0.154E-02-0.107E-04
CGA:  35    -0.927142999373E+02   -0.64547E-04   -0.64001E-04 10752   0.114E-02-0.683E-05
CGA:  36    -0.927144269676E+02   -0.12703E-03   -0.12749E-03 10752   0.758E-03-0.214E-04
SDA:  37    -0.927144584105E+02   -0.31443E-04   -0.31328E-04 10752   0.748E-03-0.520E-06
CGA:  38    -0.927144819173E+02   -0.23507E-04   -0.23647E-04 10752   0.366E-03 0.488E-05
CGA:  39    -0.927145140426E+02   -0.32125E-04   -0.32129E-04 10752   0.204E-03 0.124E-04
CGA:  40    -0.927145333317E+02   -0.19289E-04   -0.19262E-04 10752   0.194E-03 0.904E-05
CGA:  41    -0.927145433891E+02   -0.10057E-04   -0.10172E-04 10752   0.191E-03 0.435E-05
CGA:  42    -0.927145662221E+02   -0.22833E-04   -0.22702E-04 10752   0.385E-04 0.552E-05
CGA:  43    -0.927145714058E+02   -0.51837E-05   -0.52913E-05 10752   0.684E-04-0.131E-05
CGA:  44    -0.927145760591E+02   -0.46533E-05   -0.45860E-05 10752   0.123E-03-0.236E-05
CGA:  45    -0.927145861811E+02   -0.10122E-04   -0.10096E-04 10752   0.182E-04-0.723E-05
CGA:  46    -0.927145875424E+02   -0.13613E-05   -0.13447E-05 10752   0.118E-04-0.720E-06
CGA:  47    -0.927145881783E+02   -0.63592E-06   -0.61046E-06 10752   0.144E-04 0.925E-07
CGA:  48    -0.927145894252E+02   -0.12469E-05   -0.12455E-05 10752   0.421E-05-0.564E-06
CGA:  49    -0.927145897585E+02   -0.33332E-06   -0.33461E-06 10752   0.665E-05 0.101E-05
   1 F= -.92714590E+02 E0= -.92716081E+02  d E =-.927146E+02  mag=     8.6111
