 vasp.6.4.3 19Mar24 (build Mar 26 2024 14:05:37) complex                        
  
 executed on             LinuxIFC date 2024.12.16  20:40:59
 running  128 mpi-ranks, on    1 nodes
 distrk:  each k-point on   32 cores,    4 groups
 distr:  one band on NCORE=   1 cores,   32 groups


--------------------------------------------------------------------------------------------------------


 INCAR:
   ALGO = All
   EDIFF = 1e-06
   EDIFFG = -0.01
   ENCUT = 520
   GGA = Pe
   IBRION = 2
   ISIF = 4
   ISMEAR = 1
   ISPIN = 2
   KPAR = 4
   LCHARG = True
   LORBIT = 11
   LREAL = False
   LWAVE = False
   MAGMOM = 1*-2.8 1*2.782 1*2.801 1*-2.814 1*2.775 1*2.894 1*-2.8 1*2.782 1*2.801 1*-0.046 1*0.035 1*0.275
   NELM = 200
   NSW = 100
   PREC = Accurate
   SIGMA = 0.2

 POTCAR:    PAW_PBE Fe_pv 02Aug2007               
 POTCAR:    PAW_PBE Pt 04Feb2005                  
 -----------------------------------------------------------------------------
|                                                                             |
|           W    W    AA    RRRRR   N    N  II  N    N   GGGG   !!!           |
|           W    W   A  A   R    R  NN   N  II  NN   N  G    G  !!!           |
|           W    W  A    A  R    R  N N  N  II  N N  N  G       !!!           |
|           W WW W  AAAAAA  RRRRR   N  N N  II  N  N N  G  GGG   !            |
|           WW  WW  A    A  R   R   N   NN  II  N   NN  G    G                |
|           W    W  A    A  R    R  N    N  II  N    N   GGGG   !!!           |
|                                                                             |
|     For optimal performance we recommend to set                             |
|       NCORE = 2 up to number-of-cores-per-socket                            |
|     NCORE specifies how many cores store one orbital (NPAR=cpu/NCORE).      |
|     This setting can greatly improve the performance of VASP for DFT.       |
|     The default, NCORE=1 might be grossly inefficient on modern             |
|     multi-core architectures or massively parallel machines. Do your        |
|     own testing! More info at https://www.vasp.at/wiki/index.php/NCORE      |
|     Unfortunately you need to use the default for GW and RPA                |
|     calculations (for HF NCORE is supported but not extensively tested      |
|     yet).                                                                   |
|                                                                             |
 -----------------------------------------------------------------------------

 POTCAR:    PAW_PBE Fe_pv 02Aug2007               
   SHA256 =  5d22e414b1f82158bf2c7ecb8b97b28fd0923e48cadc1c3bf74d524558f5dd32 Fe_pv/POTCAR          
   COPYR  = (c) Copyright 02Aug2007 Georg Kresse                                                    
   COPYR  = This file is part of the software VASP. Any use, copying, and all other rights are regul
   COPYR  = If you do not have a valid VASP license, you may not use, copy or distribute this file. 
   VRHFIN =Fe:  3pd7s1                                                                              
   LEXCH  = PE                                                                                      
   EATOM  =  2457.4239 eV,  180.6156 Ry                                                             
                                                                                                    
   TITEL  = PAW_PBE Fe_pv 02Aug2007                                                                 
   LULTRA =        F    use ultrasoft PP ?                                                          
   IUNSCR =        1    unscreen: 0-lin 1-nonlin 2-no                                               
   RPACOR =    1.750    partial core radius                                                         
   POMASS =   55.847; ZVAL   =   14.000    mass and valenz                                          
   RCORE  =    2.200    outmost cutoff radius                                                       
   RWIGS  =    2.200; RWIGS  =    1.164    wigner-seitz radius (au A)                               
   ENMAX  =  293.238; ENMIN  =  219.928 eV                                                          
   ICORE  =        3    local potential                                                             
   LCOR   =        T    correct aug charges                                                         
   LPAW   =        T    paw PP                                                                      
   EAUG   =  578.342                                                                                
   DEXC   =    0.000                                                                                
   RMAX   =    2.249    core radius for proj-oper                                                   
   RAUG   =    1.300    factor for augmentation sphere                                              
   RDEP   =    2.296    radius for radial grids                                                     
   RDEPT  =    1.766    core radius for aug-charge                                                  
                                                                                                    
   Atomic configuration                                                                             
    8 entries                                                                                       
     n  l   j            E        occ.                                                              
     1  0  0.50     -6993.8440   2.0000                                                             
     2  0  0.50      -814.6047   2.0000                                                             
     2  1  1.50      -693.3689   6.0000                                                             
     3  0  0.50       -89.4732   2.0000                                                             
     3  1  1.50       -55.6373   6.0000                                                             
     3  2  2.50        -3.8151   7.0000                                                             
     4  0  0.50        -4.2551   1.0000                                                             
     4  3  2.50        -1.3606   0.0000                                                             
   Description                                                                                      
     l       E           TYP  RCUT    TYP  RCUT                                                     
     1    -55.6372668     23  2.000                                                                 
     1     -5.4423304     23  2.000                                                                 
     2     -3.8151096     23  2.200                                                                 
     2     -5.1756922     23  2.200                                                                 
     0     -4.2550951     23  2.200                                                                 
     0     27.2116520     23  2.200                                                                 
     3     -1.3605826     23  2.200                                                                 
  local pseudopotential read in
  partial core-charges read in
  partial kinetic energy density read in
  atomic valenz-charges read in
  non local Contribution for L=           1  read in
    real space projection operators read in
  non local Contribution for L=           1  read in
    real space projection operators read in
  non local Contribution for L=           2  read in
    real space projection operators read in
  non local Contribution for L=           2  read in
    real space projection operators read in
  non local Contribution for L=           0  read in
    real space projection operators read in
  non local Contribution for L=           0  read in
    real space projection operators read in
    PAW grid and wavefunctions read in
 
   number of l-projection  operators is LMAX  =           6
   number of lm-projection operators is LMMAX =          18
 
 POTCAR:    PAW_PBE Pt 04Feb2005                  
   SHA256 =  3ed90460adef76debcff1cfb73ee1349b515b1a3db03439735b44de3a8db7dc8 Pt/POTCAR             
   COPYR  = (c) Copyright 04Feb2005 Georg Kresse                                                    
   COPYR  = This file is part of the software VASP. Any use, copying, and all other rights are regul
   COPYR  = If you do not have a valid VASP license, you may not use, copy or distribute this file. 
   VRHFIN =Pt: s1d9                                                                                 
   LEXCH  = PE                                                                                      
   EATOM  =   729.1176 eV,   53.5886 Ry                                                             
                                                                                                    
   TITEL  = PAW_PBE Pt 04Feb2005                                                                    
   LULTRA =        F    use ultrasoft PP ?                                                          
   IUNSCR =        1    unscreen: 0-lin 1-nonlin 2-no                                               
   RPACOR =    2.330    partial core radius                                                         
   POMASS =  195.080; ZVAL   =   10.000    mass and valenz                                          
   RCORE  =    2.600    outmost cutoff radius                                                       
   RWIGS  =    2.750; RWIGS  =    1.455    wigner-seitz radius (au A)                               
   ENMAX  =  230.283; ENMIN  =  172.712 eV                                                          
   ICORE  =        3    local potential                                                             
   LCOR   =        T    correct aug charges                                                         
   LPAW   =        T    paw PP                                                                      
   EAUG   =  358.966                                                                                
   DEXC   =    0.000                                                                                
   RMAX   =    2.658    core radius for proj-oper                                                   
   RAUG   =    1.300    factor for augmentation sphere                                              
   RDEP   =    2.761    radius for radial grids                                                     
   RDEPT  =    2.203    core radius for aug-charge                                                  
                                                                                                    
   Atomic configuration                                                                             
   16 entries                                                                                       
     n  l   j            E        occ.                                                              
     1  0  0.50    -78401.1885   2.0000                                                             
     2  0  0.50    -13770.7750   2.0000                                                             
     2  1  1.50    -11931.0468   6.0000                                                             
     3  0  0.50     -3234.7234   2.0000                                                             
     3  1  1.50     -2699.2216   6.0000                                                             
     3  2  2.50     -2119.5714  10.0000                                                             
     4  0  0.50      -695.1528   2.0000                                                             
     4  1  1.50      -519.6034   6.0000                                                             
     4  2  2.50      -306.6786  10.0000                                                             
     4  3  3.50       -70.1041  14.0000                                                             
     5  0  0.50      -101.7747   2.0000                                                             
     5  1  1.50       -55.9873   6.0000                                                             
     5  2  2.50        -6.1423   9.0000                                                             
     6  0  0.50        -5.6573   1.0000                                                             
     6  1  1.50        -6.8029   0.0000                                                             
     5  3  2.50        -1.3606   0.0000                                                             
   Description                                                                                      
     l       E           TYP  RCUT    TYP  RCUT                                                     
     2     -6.1423404     23  2.500                                                                 
     2     -7.5029230     23  2.500                                                                 
     0     -5.6573207     23  2.500                                                                 
     0      0.7416693     23  2.500                                                                 
     1     -2.7211652     23  2.600                                                                 
     1     20.4087390     23  2.600                                                                 
     3     -1.3605826     23  2.500                                                                 
  local pseudopotential read in
  partial core-charges read in
  partial kinetic energy density read in
  atomic valenz-charges read in
  non local Contribution for L=           2  read in
    real space projection operators read in
  non local Contribution for L=           2  read in
    real space projection operators read in
  non local Contribution for L=           0  read in
    real space projection operators read in
  non local Contribution for L=           0  read in
    real space projection operators read in
  non local Contribution for L=           1  read in
    real space projection operators read in
  non local Contribution for L=           1  read in
    real space projection operators read in
    PAW grid and wavefunctions read in
 
   number of l-projection  operators is LMAX  =           6
   number of lm-projection operators is LMMAX =          18
 
  PAW_PBE Fe_pv 02Aug2007               :
 energy of atom  1       EATOM=-2457.4239
 kinetic energy error for atom=    0.0062 (will be added to EATOM!!)
  PAW_PBE Pt 04Feb2005                  :
 energy of atom  2       EATOM= -729.1176
 kinetic energy error for atom=    0.0032 (will be added to EATOM!!)
 
 
 POSCAR: Fe9 Pt3
  positions in direct lattice
  velocities in cartesian coordinates


 exchange-correlation table for PE
   RHO(1)=    0.500       N(1)  =     2000
   RHO(2)=  100.500       N(2)  =     4000
 


--------------------------------------------------------------------------------------------------------


 ion  position               nearest neighbor table
   1  0.000  0.500  0.167-   4 2.65   4 2.65  11 2.68  11 2.68   7 2.70   7 2.70   7 2.70   7 2.70
                            10 2.74  10 2.74
   2  0.000  0.500  0.499-   5 2.63   5 2.63   6 2.69   6 2.69   8 2.70   8 2.70   8 2.70   8 2.70
                            12 2.71  12 2.71  11 2.76  11 2.76
   3  0.000  0.500  0.832-   9 2.70   9 2.70   9 2.70   9 2.70  10 2.70  10 2.70  12 2.71  12 2.71
                             6 2.74   6 2.74
   4  0.500  0.500  0.008-   1 2.65   7 2.65   7 2.65   1 2.65  10 2.70  10 2.70  10 2.70  10 2.70

   5  0.500  0.500  0.344-   2 2.63   8 2.63   8 2.63   2 2.63  11 2.70  11 2.70  11 2.70  11 2.70

   6  0.500  0.500  0.663-   2 2.69   8 2.69   8 2.69   2 2.69  12 2.70  12 2.70  12 2.70  12 2.70
                             9 2.74   3 2.74   9 2.74   3 2.74
   7  0.500  0.000  0.167-   4 2.65   4 2.65  11 2.68  11 2.68   1 2.70   1 2.70   1 2.70   1 2.70
                            10 2.74  10 2.74
   8  0.500  0.000  0.499-   5 2.63   5 2.63   6 2.69   6 2.69   2 2.70   2 2.70   2 2.70   2 2.70
                            12 2.71  12 2.71  11 2.76  11 2.76
   9  0.500  0.000  0.832-   3 2.70   3 2.70   3 2.70   3 2.70  10 2.70  10 2.70  12 2.71  12 2.71
                             6 2.74   6 2.74
  10  0.000  0.000  0.997-   4 2.70   4 2.70   4 2.70   4 2.70   3 2.70   9 2.70   9 2.70   3 2.70
                             1 2.74   7 2.74   7 2.74   1 2.74
  11  0.000  0.000  0.328-   1 2.68   7 2.68   1 2.68   7 2.68   5 2.70   5 2.70   5 2.70   5 2.70
                             2 2.76   2 2.76   8 2.76   8 2.76
  12  0.000  0.000  0.665-   6 2.70   6 2.70   6 2.70   6 2.70   2 2.71   8 2.71   8 2.71   2 2.71
                             3 2.71   3 2.71   9 2.71   9 2.71
 
  LATTYP: Found a simple tetragonal cell.
 ALAT       =     3.8132610427
 C/A-ratio  =     3.0478746012
  
  Lattice vectors:
  
 A1 = (   3.8132610427,   0.0000000000,   0.0000000000)
 A2 = (   0.0000000000,   3.8132610427,   0.0000000000)
 A3 = (   0.0000000000,   0.0000000000,  11.6223414797)


Analysis of symmetry for initial positions (statically):
=====================================================================
 Subroutine PRICEL returns:
 Original cell was already a primitive cell.
 

 Routine SETGRP: Setting up the symmetry group for a 
 simple tetragonal supercell.


 Subroutine GETGRP returns: Found  8 space group operations
 (whereof  8 operations were pure point group operations)
 out of a pool of 16 trial point group operations.


The static configuration has the point symmetry C_4v.


Analysis of symmetry for dynamics (positions and initial velocities):
=====================================================================
 Subroutine PRICEL returns:
 Original cell was already a primitive cell.
 

 Routine SETGRP: Setting up the symmetry group for a 
 simple tetragonal supercell.


 Subroutine GETGRP returns: Found  8 space group operations
 (whereof  8 operations were pure point group operations)
 out of a pool of 16 trial point group operations.


The dynamic configuration has the point symmetry C_4v.


Analysis of structural, dynamic, and magnetic symmetry:
=====================================================================
 Subroutine PRICEL returns:
 Original cell was already a primitive cell.
 

 Routine SETGRP: Setting up the symmetry group for a 
 simple tetragonal supercell.


 Subroutine GETGRP returns: Found  8 space group operations
 (whereof  8 operations were pure point group operations)
 out of a pool of 16 trial point group operations.


The overall configuration has the point symmetry C_4v.


 Subroutine INISYM returns: Found  8 space group operations
 (whereof  8 operations are pure point group operations),
 and found     1 'primitive' translations


----------------------------------------------------------------------------------------

                                     Primitive cell                                     

  volume of cell :     169.0000

  direct lattice vectors                    reciprocal lattice vectors
     3.813261043  0.000000000  0.000000000     0.262242734  0.000000000  0.000000000
     0.000000000  3.813261043  0.000000000     0.000000000  0.262242734  0.000000000
     0.000000000  0.000000000 11.622341480     0.000000000  0.000000000  0.086041182

  length of vectors
     3.813261043  3.813261043 11.622341480     0.262242734  0.262242734  0.086041182

  position of ions in fractional coordinates (direct lattice)
     0.000000000  0.500000000  0.166580761
     0.000000000  0.500000000  0.499476679
     0.000000000  0.500000000  0.831689404
     0.500000000  0.500000000  0.007844052
     0.500000000  0.500000000  0.343591761
     0.500000000  0.500000000  0.662834818
     0.500000000  0.000000000  0.166580761
     0.500000000  0.000000000  0.499476679
     0.500000000  0.000000000  0.831689404
     0.000000000  0.000000000  0.996669760
     0.000000000  0.000000000  0.328119289
     0.000000000  0.000000000  0.665446630

  ion indices of the primitive-cell ions
   primitive index   ion index
                 1           1
                 2           2
                 3           3
                 4           4
                 5           5
                 6           6
                 7           7
                 8           8
                 9           9
                10          10
                11          11
                12          12

----------------------------------------------------------------------------------------

 
 
 KPOINTS: pymatgen with grid density = 8800 / numb

Automatic generation of k-mesh.
 Grid dimensions read from file:
 generate k-points for:   13   13    4

 Generating k-lattice:

  Cartesian coordinates                     Fractional coordinates (reciprocal lattice)
     0.020172518  0.000000000  0.000000000     0.076923077  0.000000000  0.000000000
     0.000000000  0.020172518  0.000000000     0.000000000  0.076923077  0.000000000
     0.000000000  0.000000000  0.021510296     0.000000000  0.000000000  0.250000000

  Length of vectors
     0.020172518  0.020172518  0.021510296

  Shift w.r.t. Gamma in fractional coordinates (k-lattice)
     0.000000000  0.000000000  0.000000000

 
 Subroutine IBZKPT returns following result:
 ===========================================
 
 Found     84 irreducible k-points:
 
 Following reciprocal coordinates:
            Coordinates               Weight
  0.000000  0.000000  0.000000      1.000000
  0.076923  0.000000  0.000000      4.000000
  0.153846  0.000000  0.000000      4.000000
  0.230769  0.000000  0.000000      4.000000
  0.307692  0.000000  0.000000      4.000000
  0.384615  0.000000  0.000000      4.000000
  0.461538  0.000000  0.000000      4.000000
  0.076923  0.076923  0.000000      4.000000
  0.153846  0.076923  0.000000      8.000000
  0.230769  0.076923  0.000000      8.000000
  0.307692  0.076923  0.000000      8.000000
  0.384615  0.076923  0.000000      8.000000
  0.461538  0.076923  0.000000      8.000000
  0.153846  0.153846  0.000000      4.000000
  0.230769  0.153846  0.000000      8.000000
  0.307692  0.153846  0.000000      8.000000
  0.384615  0.153846  0.000000      8.000000
  0.461538  0.153846  0.000000      8.000000
  0.230769  0.230769  0.000000      4.000000
  0.307692  0.230769  0.000000      8.000000
  0.384615  0.230769  0.000000      8.000000
  0.461538  0.230769  0.000000      8.000000
  0.307692  0.307692  0.000000      4.000000
  0.384615  0.307692  0.000000      8.000000
  0.461538  0.307692  0.000000      8.000000
  0.384615  0.384615  0.000000      4.000000
  0.461538  0.384615  0.000000      8.000000
  0.461538  0.461538  0.000000      4.000000
  0.000000  0.000000  0.250000      2.000000
  0.076923  0.000000  0.250000      8.000000
  0.153846  0.000000  0.250000      8.000000
  0.230769  0.000000  0.250000      8.000000
  0.307692  0.000000  0.250000      8.000000
  0.384615  0.000000  0.250000      8.000000
  0.461538  0.000000  0.250000      8.000000
  0.076923  0.076923  0.250000      8.000000
  0.153846  0.076923  0.250000     16.000000
  0.230769  0.076923  0.250000     16.000000
  0.307692  0.076923  0.250000     16.000000
  0.384615  0.076923  0.250000     16.000000
  0.461538  0.076923  0.250000     16.000000
  0.153846  0.153846  0.250000      8.000000
  0.230769  0.153846  0.250000     16.000000
  0.307692  0.153846  0.250000     16.000000
  0.384615  0.153846  0.250000     16.000000
  0.461538  0.153846  0.250000     16.000000
  0.230769  0.230769  0.250000      8.000000
  0.307692  0.230769  0.250000     16.000000
  0.384615  0.230769  0.250000     16.000000
  0.461538  0.230769  0.250000     16.000000
  0.307692  0.307692  0.250000      8.000000
  0.384615  0.307692  0.250000     16.000000
  0.461538  0.307692  0.250000     16.000000
  0.384615  0.384615  0.250000      8.000000
  0.461538  0.384615  0.250000     16.000000
  0.461538  0.461538  0.250000      8.000000
  0.000000  0.000000  0.500000      1.000000
  0.076923  0.000000  0.500000      4.000000
  0.153846  0.000000  0.500000      4.000000
  0.230769  0.000000  0.500000      4.000000
  0.307692  0.000000  0.500000      4.000000
  0.384615  0.000000  0.500000      4.000000
  0.461538  0.000000  0.500000      4.000000
  0.076923  0.076923  0.500000      4.000000
  0.153846  0.076923  0.500000      8.000000
  0.230769  0.076923  0.500000      8.000000
  0.307692  0.076923  0.500000      8.000000
  0.384615  0.076923  0.500000      8.000000
  0.461538  0.076923  0.500000      8.000000
  0.153846  0.153846  0.500000      4.000000
  0.230769  0.153846  0.500000      8.000000
  0.307692  0.153846  0.500000      8.000000
  0.384615  0.153846  0.500000      8.000000
  0.461538  0.153846  0.500000      8.000000
  0.230769  0.230769  0.500000      4.000000
  0.307692  0.230769  0.500000      8.000000
  0.384615  0.230769  0.500000      8.000000
  0.461538  0.230769  0.500000      8.000000
  0.307692  0.307692  0.500000      4.000000
  0.384615  0.307692  0.500000      8.000000
  0.461538  0.307692  0.500000      8.000000
  0.384615  0.384615  0.500000      4.000000
  0.461538  0.384615  0.500000      8.000000
  0.461538  0.461538  0.500000      4.000000
 
 Following cartesian coordinates:
            Coordinates               Weight
  0.000000  0.000000  0.000000      1.000000
  0.020173  0.000000  0.000000      4.000000
  0.040345  0.000000  0.000000      4.000000
  0.060518  0.000000  0.000000      4.000000
  0.080690  0.000000  0.000000      4.000000
  0.100863  0.000000  0.000000      4.000000
  0.121035  0.000000  0.000000      4.000000
  0.020173  0.020173  0.000000      4.000000
  0.040345  0.020173  0.000000      8.000000
  0.060518  0.020173  0.000000      8.000000
  0.080690  0.020173  0.000000      8.000000
  0.100863  0.020173  0.000000      8.000000
  0.121035  0.020173  0.000000      8.000000
  0.040345  0.040345  0.000000      4.000000
  0.060518  0.040345  0.000000      8.000000
  0.080690  0.040345  0.000000      8.000000
  0.100863  0.040345  0.000000      8.000000
  0.121035  0.040345  0.000000      8.000000
  0.060518  0.060518  0.000000      4.000000
  0.080690  0.060518  0.000000      8.000000
  0.100863  0.060518  0.000000      8.000000
  0.121035  0.060518  0.000000      8.000000
  0.080690  0.080690  0.000000      4.000000
  0.100863  0.080690  0.000000      8.000000
  0.121035  0.080690  0.000000      8.000000
  0.100863  0.100863  0.000000      4.000000
  0.121035  0.100863  0.000000      8.000000
  0.121035  0.121035  0.000000      4.000000
  0.000000  0.000000  0.021510      2.000000
  0.020173  0.000000  0.021510      8.000000
  0.040345  0.000000  0.021510      8.000000
  0.060518  0.000000  0.021510      8.000000
  0.080690  0.000000  0.021510      8.000000
  0.100863  0.000000  0.021510      8.000000
  0.121035  0.000000  0.021510      8.000000
  0.020173  0.020173  0.021510      8.000000
  0.040345  0.020173  0.021510     16.000000
  0.060518  0.020173  0.021510     16.000000
  0.080690  0.020173  0.021510     16.000000
  0.100863  0.020173  0.021510     16.000000
  0.121035  0.020173  0.021510     16.000000
  0.040345  0.040345  0.021510      8.000000
  0.060518  0.040345  0.021510     16.000000
  0.080690  0.040345  0.021510     16.000000
  0.100863  0.040345  0.021510     16.000000
  0.121035  0.040345  0.021510     16.000000
  0.060518  0.060518  0.021510      8.000000
  0.080690  0.060518  0.021510     16.000000
  0.100863  0.060518  0.021510     16.000000
  0.121035  0.060518  0.021510     16.000000
  0.080690  0.080690  0.021510      8.000000
  0.100863  0.080690  0.021510     16.000000
  0.121035  0.080690  0.021510     16.000000
  0.100863  0.100863  0.021510      8.000000
  0.121035  0.100863  0.021510     16.000000
  0.121035  0.121035  0.021510      8.000000
  0.000000  0.000000  0.043021      1.000000
  0.020173  0.000000  0.043021      4.000000
  0.040345  0.000000  0.043021      4.000000
  0.060518  0.000000  0.043021      4.000000
  0.080690  0.000000  0.043021      4.000000
  0.100863  0.000000  0.043021      4.000000
  0.121035  0.000000  0.043021      4.000000
  0.020173  0.020173  0.043021      4.000000
  0.040345  0.020173  0.043021      8.000000
  0.060518  0.020173  0.043021      8.000000
  0.080690  0.020173  0.043021      8.000000
  0.100863  0.020173  0.043021      8.000000
  0.121035  0.020173  0.043021      8.000000
  0.040345  0.040345  0.043021      4.000000
  0.060518  0.040345  0.043021      8.000000
  0.080690  0.040345  0.043021      8.000000
  0.100863  0.040345  0.043021      8.000000
  0.121035  0.040345  0.043021      8.000000
  0.060518  0.060518  0.043021      4.000000
  0.080690  0.060518  0.043021      8.000000
  0.100863  0.060518  0.043021      8.000000
  0.121035  0.060518  0.043021      8.000000
  0.080690  0.080690  0.043021      4.000000
  0.100863  0.080690  0.043021      8.000000
  0.121035  0.080690  0.043021      8.000000
  0.100863  0.100863  0.043021      4.000000
  0.121035  0.100863  0.043021      8.000000
  0.121035  0.121035  0.043021      4.000000
 


--------------------------------------------------------------------------------------------------------




 Dimension of arrays:
   k-points           NKPTS =     84   k-points in BZ     NKDIM =     84   number of bands    NBANDS=    128
   number of dos      NEDOS =    301   number of ions     NIONS =     12
   non local maximal  LDIM  =      6   non local SUM 2l+1 LMDIM =     18
   total plane-waves  NPLWV =  70560
   max r-space proj   IRMAX =      1   max aug-charges    IRDMAX=  25484
   dimension x,y,z NGX =    28 NGY =   28 NGZ =   90
   dimension x,y,z NGXF=    56 NGYF=   56 NGZF=  180
   support grid    NGXF=    56 NGYF=   56 NGZF=  180
   ions per type =               9   3
   NGX,Y,Z   is equivalent  to a cutoff of  12.21, 12.21, 12.87 a.u.
   NGXF,Y,Z  is equivalent  to a cutoff of  24.41, 24.41, 25.75 a.u.

 SYSTEM =  unknown system                          
 POSCAR =  Fe9 Pt3                                 

 Startparameter for this run:
   NWRITE =      2    write-flag & timer
   PREC   = accura    normal or accurate (medium, high low for compatibility)
   ISTART =      0    job   : 0-new  1-cont  2-samecut
   ICHARG =      2    charge: 1-file 2-atom 10-const
   ISPIN  =      2    spin polarized calculation?
   LNONCOLLINEAR =      F non collinear calculations
   LSORBIT =      F    spin-orbit coupling
   INIWAV =      1    electr: 0-lowe 1-rand  2-diag
   LASPH  =      F    aspherical Exc in radial PAW
 Electronic Relaxation 1
   ENCUT  =  520.0 eV  38.22 Ry    6.18 a.u.   7.09  7.09 21.61*2*pi/ulx,y,z
   ENINI  =  520.0     initial cutoff
   ENAUG  =  578.3 eV  augmentation charge cutoff
   NELM   =    200;   NELMIN=  2; NELMDL=  0     # of ELM steps 
   EDIFF  = 0.1E-05   stopping-criterion for ELM
   LREAL  =      F    real-space projection
   NLSPLINE    = F    spline interpolate recip. space projectors
   LCOMPAT=      F    compatible to vasp.4.4
   GGA_COMPAT  = T    GGA compatible to vasp.4.4-vasp.4.6
   LMAXPAW     = -100 max onsite density
   LMAXMIX     =    2 max onsite mixed and CHGCAR
   VOSKOWN=      0    Vosko Wilk Nusair interpolation
   ROPT   =    0.00000   0.00000
 Ionic relaxation
   EDIFFG = -.1E-01   stopping-criterion for IOM
   NSW    =    100    number of steps for IOM
   NBLOCK =      1;   KBLOCK =    100    inner block; outer block 
   IBRION =      2    ionic relax: 0-MD 1-quasi-New 2-CG
   NFREE  =      1    steps in history (QN), initial steepest desc. (CG)
   ISIF   =      4    stress and relaxation
   IWAVPR =     11    prediction:  0-non 1-charg 2-wave 3-comb
   ISYM   =      2    0-nonsym 1-usesym 2-fastsym
   LCORR  =      T    Harris-Foulkes like correction to forces

   POTIM  = 0.5000    time-step for ionic-motion
   TEIN   =    0.0    initial temperature
   TEBEG  =    0.0;   TEEND  =   0.0 temperature during run
   SMASS  =  -3.00    Nose mass-parameter (am)
   estimated Nose-frequenzy (Omega)   =  0.10E-29 period in steps = 0.13E+47 mass=  -0.332E-27a.u.
   SCALEE = 1.0000    scale energy and forces
   NPACO  =    256;   APACO  = 10.0  distance and # of slots for P.C.
   PSTRESS=    0.0 pullay stress

  Mass of Ions in am
   POMASS =  55.85195.08
  Ionic Valenz
   ZVAL   =  14.00 10.00
  Atomic Wigner-Seitz radii
   RWIGS  =  -1.00 -1.00
  virtual crystal weights 
   VCA    =   1.00  1.00
   NELECT =     156.0000    total number of electrons
   NUPDOWN=      -1.0000    fix difference up-down

 DOS related values:
   EMIN   =  10.00;   EMAX   =-10.00  energy-range for DOS
   EFERMI =   0.00;   METHOD = LEGACY      
   ISMEAR =     1;   SIGMA  =   0.20  broadening in eV -4-tet -1-fermi 0-gaus

 Electronic relaxation 2 (details)
   IALGO  =     58    algorithm
   LDIAG  =      T    sub-space diagonalisation (order eigenvalues)
   LSUBROT=      F    optimize rotation matrix (better conditioning)
   TURBO    =      0    0=normal 1=particle mesh
   IRESTART =      0    0=no restart 2=restart with 2 vectors
   NREBOOT  =      0    no. of reboots
   NMIN     =      0    reboot dimension
   EREF     =   0.00    reference energy to select bands
   IMIX   =      4    mixing-type and parameters
     AMIX     =   0.40;   BMIX     =  1.00
     AMIX_MAG =   1.60;   BMIX_MAG =  1.00
     AMIN     =   0.10
     WC   =   100.;   INIMIX=   1;  MIXPRE=   1;  MAXMIX= -45

 Intra band minimization:
   WEIMIN = 0.0010     energy-eigenvalue tresh-hold
   EBREAK =  0.20E-08  absolut break condition
   DEPER  =   0.30     relativ break condition  

   TIME   =   0.40     timestep for ELM

  volume/ion in A,a.u.               =      14.08        95.04
  Fermi-wavevector in a.u.,A,eV,Ry     =   1.593997  3.012217 34.570036  2.540826
  Thomas-Fermi vector in A             =   2.692140
 
 Write flags
   LWAVE        =      F    write WAVECAR
   LDOWNSAMPLE  =      F    k-point downsampling of WAVECAR
   LCHARG       =      T    write CHGCAR
   LVTOT        =      F    write LOCPOT, total local potential
   LVHAR        =      F    write LOCPOT, Hartree potential only
   WRT_POTENTIAL= false  ! write potential to hdf5 file
   LELF         =      F    write electronic localiz. function (ELF)
   LORBIT       =     11    0 simple, 1 ext, 2 COOP (PROOUT), +10 PAW based schemes


 Dipole corrections
   LMONO      =      F    monopole corrections only (constant potential shift)
   LDIPOL     =      F    correct potential (dipole corrections)
   IDIPOL     =      0    1-x, 2-y, 3-z, 4-all directions 
   EPSILON    =  1.0000000 bulk dielectric constant
   LVACPOTAV  =      F  vacuum potentials using an averaging scheme for the charge density
   VACPOTFLAT =  0.1000000 required flatness to determine vacuum potential
 Exchange correlation treatment:
   GGA     = PE    functional components
   XC_C    = 1    coefficients multiplying the functional components
   LIBXC   =     F    Libxc                    
   VOSKOWN =     0    Vosko Wilk Nusair interpolation
   LHFCALC =     F    Hartree Fock is set to
   LHFONE  =     F    Hartree Fock one center treatment
   AEXX    =    0.0000 exact exchange contribution

 Parameters of functionals:
   PE:
     No parameter
 
 Van der Waals corrections
   IVDW    =     0    specifies the selected vdW correction

 Linear response parameters
   LEPSILON=     F    determine dielectric tensor
   LRPA    =     F    only Hartree local field effects (RPA)
   LNABLA  =     F    use nabla operator in PAW spheres
   LVEL    =     F    velocity operator in full k-point grid
   CSHIFT  =0.1000    complex shift for real part using Kramers Kronig
   OMEGAMAX=  -1.0    maximum frequency
   DEG_THRESHOLD= 0.2000000E-02 threshold for treating states as degnerate
   RTIME   =   -0.100 relaxation time in fs
  (WPLASMAI=    0.000 imaginary part of plasma frequency in eV, 0.658/RTIME)
   DFIELD  = 0.0000000 0.0000000 0.0000000 field for delta impulse in time
 
  Optional k-point grid parameters
   LKPOINTS_OPT  =     F    use optional k-point grid
   KPOINTS_OPT_MODE=     1    mode for optional k-point grid
 
 Orbital magnetization related:
   ORBITALMAG=     F  switch on orbital magnetization
   LCHIMAG   =     F  perturbation theory with respect to B field
   DQ        =  0.001000  dq finite difference perturbation B field
   LLRAUG    =     F  two centre corrections for induced B field
   LBONE     =     F  B-component reconstruction in AE one-centre
   LVGVCALC  =     T  calculate vGv susceptibility
   LVGVAPPL  =     F  apply vGv susceptibility instead of pGv for G=0

 Random number generation:
   RANDOM_GENERATOR = DEFAULT
   PCG_SEED         = not used


--------------------------------------------------------------------------------------------------------


 conjugate gradient relaxation of ions
 charge density and potential will be updated during run
 spin polarized calculation
 Conjugate gradient for all bands (Freysoldt, et al. PRB 79, 241103 (2009))
 preconditioned conjugated gradient                                        
 perform sub-space diagonalisation
    before iterative eigenvector-optimisation
 modified Broyden-mixing scheme, WC =      100.0
 initial mixing is a Kerker type mixing with AMIX =  0.4000 and BMIX =      1.0000
 Hartree-type preconditioning will be used
 using additional bands           50
 reciprocal scheme for non local part
 use partial core corrections
 no Harris-corrections to forces 
 use gradient corrections 
 use of overlap-Matrix (Vanderbilt PP)
 Methfessel and Paxton  Order N= 1 SIGMA  =   0.20


--------------------------------------------------------------------------------------------------------


  energy-cutoff  :      520.00
  volume of cell :      169.00
      direct lattice vectors                 reciprocal lattice vectors
     3.813261043  0.000000000  0.000000000     0.262242734  0.000000000  0.000000000
     0.000000000  3.813261043  0.000000000     0.000000000  0.262242734  0.000000000
     0.000000000  0.000000000 11.622341480     0.000000000  0.000000000  0.086041182

  length of vectors
     3.813261043  3.813261043 11.622341480     0.262242734  0.262242734  0.086041182


 
 k-points in units of 2pi/SCALE and weight: pymatgen with grid density = 8800 / numb
   0.00000000  0.00000000  0.00000000       0.001
   0.02017252  0.00000000  0.00000000       0.006
   0.04034504  0.00000000  0.00000000       0.006
   0.06051755  0.00000000  0.00000000       0.006
   0.08069007  0.00000000  0.00000000       0.006
   0.10086259  0.00000000  0.00000000       0.006
   0.12103511  0.00000000  0.00000000       0.006
   0.02017252  0.02017252  0.00000000       0.006
   0.04034504  0.02017252  0.00000000       0.012
   0.06051755  0.02017252  0.00000000       0.012
   0.08069007  0.02017252  0.00000000       0.012
   0.10086259  0.02017252  0.00000000       0.012
   0.12103511  0.02017252  0.00000000       0.012
   0.04034504  0.04034504  0.00000000       0.006
   0.06051755  0.04034504  0.00000000       0.012
   0.08069007  0.04034504  0.00000000       0.012
   0.10086259  0.04034504  0.00000000       0.012
   0.12103511  0.04034504  0.00000000       0.012
   0.06051755  0.06051755  0.00000000       0.006
   0.08069007  0.06051755  0.00000000       0.012
   0.10086259  0.06051755  0.00000000       0.012
   0.12103511  0.06051755  0.00000000       0.012
   0.08069007  0.08069007  0.00000000       0.006
   0.10086259  0.08069007  0.00000000       0.012
   0.12103511  0.08069007  0.00000000       0.012
   0.10086259  0.10086259  0.00000000       0.006
   0.12103511  0.10086259  0.00000000       0.012
   0.12103511  0.12103511  0.00000000       0.006
   0.00000000  0.00000000  0.02151030       0.003
   0.02017252  0.00000000  0.02151030       0.012
   0.04034504  0.00000000  0.02151030       0.012
   0.06051755  0.00000000  0.02151030       0.012
   0.08069007  0.00000000  0.02151030       0.012
   0.10086259  0.00000000  0.02151030       0.012
   0.12103511  0.00000000  0.02151030       0.012
   0.02017252  0.02017252  0.02151030       0.012
   0.04034504  0.02017252  0.02151030       0.024
   0.06051755  0.02017252  0.02151030       0.024
   0.08069007  0.02017252  0.02151030       0.024
   0.10086259  0.02017252  0.02151030       0.024
   0.12103511  0.02017252  0.02151030       0.024
   0.04034504  0.04034504  0.02151030       0.012
   0.06051755  0.04034504  0.02151030       0.024
   0.08069007  0.04034504  0.02151030       0.024
   0.10086259  0.04034504  0.02151030       0.024
   0.12103511  0.04034504  0.02151030       0.024
   0.06051755  0.06051755  0.02151030       0.012
   0.08069007  0.06051755  0.02151030       0.024
   0.10086259  0.06051755  0.02151030       0.024
   0.12103511  0.06051755  0.02151030       0.024
   0.08069007  0.08069007  0.02151030       0.012
   0.10086259  0.08069007  0.02151030       0.024
   0.12103511  0.08069007  0.02151030       0.024
   0.10086259  0.10086259  0.02151030       0.012
   0.12103511  0.10086259  0.02151030       0.024
   0.12103511  0.12103511  0.02151030       0.012
   0.00000000  0.00000000  0.04302059       0.001
   0.02017252  0.00000000  0.04302059       0.006
   0.04034504  0.00000000  0.04302059       0.006
   0.06051755  0.00000000  0.04302059       0.006
   0.08069007  0.00000000  0.04302059       0.006
   0.10086259  0.00000000  0.04302059       0.006
   0.12103511  0.00000000  0.04302059       0.006
   0.02017252  0.02017252  0.04302059       0.006
   0.04034504  0.02017252  0.04302059       0.012
   0.06051755  0.02017252  0.04302059       0.012
   0.08069007  0.02017252  0.04302059       0.012
   0.10086259  0.02017252  0.04302059       0.012
   0.12103511  0.02017252  0.04302059       0.012
   0.04034504  0.04034504  0.04302059       0.006
   0.06051755  0.04034504  0.04302059       0.012
   0.08069007  0.04034504  0.04302059       0.012
   0.10086259  0.04034504  0.04302059       0.012
   0.12103511  0.04034504  0.04302059       0.012
   0.06051755  0.06051755  0.04302059       0.006
   0.08069007  0.06051755  0.04302059       0.012
   0.10086259  0.06051755  0.04302059       0.012
   0.12103511  0.06051755  0.04302059       0.012
   0.08069007  0.08069007  0.04302059       0.006
   0.10086259  0.08069007  0.04302059       0.012
   0.12103511  0.08069007  0.04302059       0.012
   0.10086259  0.10086259  0.04302059       0.006
   0.12103511  0.10086259  0.04302059       0.012
   0.12103511  0.12103511  0.04302059       0.006
 
 k-points in reciprocal lattice and weights: pymatgen with grid density = 8800 / numb
   0.00000000  0.00000000  0.00000000       0.001
   0.07692308  0.00000000  0.00000000       0.006
   0.15384615  0.00000000  0.00000000       0.006
   0.23076923  0.00000000  0.00000000       0.006
   0.30769231  0.00000000  0.00000000       0.006
   0.38461538  0.00000000  0.00000000       0.006
   0.46153846  0.00000000  0.00000000       0.006
   0.07692308  0.07692308  0.00000000       0.006
   0.15384615  0.07692308  0.00000000       0.012
   0.23076923  0.07692308  0.00000000       0.012
   0.30769231  0.07692308  0.00000000       0.012
   0.38461538  0.07692308  0.00000000       0.012
   0.46153846  0.07692308  0.00000000       0.012
   0.15384615  0.15384615  0.00000000       0.006
   0.23076923  0.15384615  0.00000000       0.012
   0.30769231  0.15384615  0.00000000       0.012
   0.38461538  0.15384615  0.00000000       0.012
   0.46153846  0.15384615  0.00000000       0.012
   0.23076923  0.23076923  0.00000000       0.006
   0.30769231  0.23076923  0.00000000       0.012
   0.38461538  0.23076923  0.00000000       0.012
   0.46153846  0.23076923  0.00000000       0.012
   0.30769231  0.30769231  0.00000000       0.006
   0.38461538  0.30769231  0.00000000       0.012
   0.46153846  0.30769231  0.00000000       0.012
   0.38461538  0.38461538  0.00000000       0.006
   0.46153846  0.38461538  0.00000000       0.012
   0.46153846  0.46153846  0.00000000       0.006
   0.00000000  0.00000000  0.25000000       0.003
   0.07692308  0.00000000  0.25000000       0.012
   0.15384615  0.00000000  0.25000000       0.012
   0.23076923  0.00000000  0.25000000       0.012
   0.30769231  0.00000000  0.25000000       0.012
   0.38461538  0.00000000  0.25000000       0.012
   0.46153846  0.00000000  0.25000000       0.012
   0.07692308  0.07692308  0.25000000       0.012
   0.15384615  0.07692308  0.25000000       0.024
   0.23076923  0.07692308  0.25000000       0.024
   0.30769231  0.07692308  0.25000000       0.024
   0.38461538  0.07692308  0.25000000       0.024
   0.46153846  0.07692308  0.25000000       0.024
   0.15384615  0.15384615  0.25000000       0.012
   0.23076923  0.15384615  0.25000000       0.024
   0.30769231  0.15384615  0.25000000       0.024
   0.38461538  0.15384615  0.25000000       0.024
   0.46153846  0.15384615  0.25000000       0.024
   0.23076923  0.23076923  0.25000000       0.012
   0.30769231  0.23076923  0.25000000       0.024
   0.38461538  0.23076923  0.25000000       0.024
   0.46153846  0.23076923  0.25000000       0.024
   0.30769231  0.30769231  0.25000000       0.012
   0.38461538  0.30769231  0.25000000       0.024
   0.46153846  0.30769231  0.25000000       0.024
   0.38461538  0.38461538  0.25000000       0.012
   0.46153846  0.38461538  0.25000000       0.024
   0.46153846  0.46153846  0.25000000       0.012
   0.00000000  0.00000000  0.50000000       0.001
   0.07692308  0.00000000  0.50000000       0.006
   0.15384615  0.00000000  0.50000000       0.006
   0.23076923  0.00000000  0.50000000       0.006
   0.30769231  0.00000000  0.50000000       0.006
   0.38461538  0.00000000  0.50000000       0.006
   0.46153846  0.00000000  0.50000000       0.006
   0.07692308  0.07692308  0.50000000       0.006
   0.15384615  0.07692308  0.50000000       0.012
   0.23076923  0.07692308  0.50000000       0.012
   0.30769231  0.07692308  0.50000000       0.012
   0.38461538  0.07692308  0.50000000       0.012
   0.46153846  0.07692308  0.50000000       0.012
   0.15384615  0.15384615  0.50000000       0.006
   0.23076923  0.15384615  0.50000000       0.012
   0.30769231  0.15384615  0.50000000       0.012
   0.38461538  0.15384615  0.50000000       0.012
   0.46153846  0.15384615  0.50000000       0.012
   0.23076923  0.23076923  0.50000000       0.006
   0.30769231  0.23076923  0.50000000       0.012
   0.38461538  0.23076923  0.50000000       0.012
   0.46153846  0.23076923  0.50000000       0.012
   0.30769231  0.30769231  0.50000000       0.006
   0.38461538  0.30769231  0.50000000       0.012
   0.46153846  0.30769231  0.50000000       0.012
   0.38461538  0.38461538  0.50000000       0.006
   0.46153846  0.38461538  0.50000000       0.012
   0.46153846  0.46153846  0.50000000       0.006
 
 position of ions in fractional coordinates (direct lattice) 
   0.00000000  0.50000000  0.16658076
   0.00000000  0.50000000  0.49947668
   0.00000000  0.50000000  0.83168940
   0.50000000  0.50000000  0.00784405
   0.50000000  0.50000000  0.34359176
   0.50000000  0.50000000  0.66283482
   0.50000000  0.00000000  0.16658076
   0.50000000  0.00000000  0.49947668
   0.50000000  0.00000000  0.83168940
   0.00000000  0.00000000  0.99666976
   0.00000000  0.00000000  0.32811929
   0.00000000  0.00000000  0.66544663
 
 position of ions in cartesian coordinates  (Angst):
   0.00000000  1.90663052  1.93605849
   0.00000000  1.90663052  5.80508853
   0.00000000  1.90663052  9.66617826
   1.90663052  1.90663052  0.09116626
   1.90663052  1.90663052  3.99334078
   1.90663052  1.90663052  7.70369259
   1.90663052  0.00000000  1.93605849
   1.90663052  0.00000000  5.80508853
   1.90663052  0.00000000  9.66617826
   0.00000000  0.00000000 11.58363629
   0.00000000  0.00000000  3.81351442
   0.00000000  0.00000000  7.73404797
 


--------------------------------------------------------------------------------------------------------


 k-point     1 :   0.0000 0.0000 0.0000  plane waves:    4531
 k-point     2 :   0.0769 0.0000 0.0000  plane waves:    4511
 k-point     3 :   0.1538 0.0000 0.0000  plane waves:    4512
 k-point     4 :   0.2308 0.0000 0.0000  plane waves:    4542
 k-point     5 :   0.3077 0.0000 0.0000  plane waves:    4564
 k-point     6 :   0.3846 0.0000 0.0000  plane waves:    4566
 k-point     7 :   0.4615 0.0000 0.0000  plane waves:    4574
 k-point     8 :   0.0769 0.0769 0.0000  plane waves:    4512
 k-point     9 :   0.1538 0.0769 0.0000  plane waves:    4518
 k-point    10 :   0.2308 0.0769 0.0000  plane waves:    4549
 k-point    11 :   0.3077 0.0769 0.0000  plane waves:    4553
 k-point    12 :   0.3846 0.0769 0.0000  plane waves:    4552
 k-point    13 :   0.4615 0.0769 0.0000  plane waves:    4557
 k-point    14 :   0.1538 0.1538 0.0000  plane waves:    4534
 k-point    15 :   0.2308 0.1538 0.0000  plane waves:    4553
 k-point    16 :   0.3077 0.1538 0.0000  plane waves:    4565
 k-point    17 :   0.3846 0.1538 0.0000  plane waves:    4552
 k-point    18 :   0.4615 0.1538 0.0000  plane waves:    4558
 k-point    19 :   0.2308 0.2308 0.0000  plane waves:    4542
 k-point    20 :   0.3077 0.2308 0.0000  plane waves:    4560
 k-point    21 :   0.3846 0.2308 0.0000  plane waves:    4561
 k-point    22 :   0.4615 0.2308 0.0000  plane waves:    4555
 k-point    23 :   0.3077 0.3077 0.0000  plane waves:    4544
 k-point    24 :   0.3846 0.3077 0.0000  plane waves:    4553
 k-point    25 :   0.4615 0.3077 0.0000  plane waves:    4564
 k-point    26 :   0.3846 0.3846 0.0000  plane waves:    4556
 k-point    27 :   0.4615 0.3846 0.0000  plane waves:    4570
 k-point    28 :   0.4615 0.4615 0.0000  plane waves:    4566
 k-point    29 :   0.0000 0.0000 0.2500  plane waves:    4531
 k-point    30 :   0.0769 0.0000 0.2500  plane waves:    4506
 k-point    31 :   0.1538 0.0000 0.2500  plane waves:    4520
 k-point    32 :   0.2308 0.0000 0.2500  plane waves:    4548
 k-point    33 :   0.3077 0.0000 0.2500  plane waves:    4563
 k-point    34 :   0.3846 0.0000 0.2500  plane waves:    4556
 k-point    35 :   0.4615 0.0000 0.2500  plane waves:    4557
 k-point    36 :   0.0769 0.0769 0.2500  plane waves:    4515
 k-point    37 :   0.1538 0.0769 0.2500  plane waves:    4526
 k-point    38 :   0.2308 0.0769 0.2500  plane waves:    4541
 k-point    39 :   0.3077 0.0769 0.2500  plane waves:    4551
 k-point    40 :   0.3846 0.0769 0.2500  plane waves:    4561
 k-point    41 :   0.4615 0.0769 0.2500  plane waves:    4554
 k-point    42 :   0.1538 0.1538 0.2500  plane waves:    4532
 k-point    43 :   0.2308 0.1538 0.2500  plane waves:    4542
 k-point    44 :   0.3077 0.1538 0.2500  plane waves:    4550
 k-point    45 :   0.3846 0.1538 0.2500  plane waves:    4562
 k-point    46 :   0.4615 0.1538 0.2500  plane waves:    4558
 k-point    47 :   0.2308 0.2308 0.2500  plane waves:    4556
 k-point    48 :   0.3077 0.2308 0.2500  plane waves:    4558
 k-point    49 :   0.3846 0.2308 0.2500  plane waves:    4554
 k-point    50 :   0.4615 0.2308 0.2500  plane waves:    4565
 k-point    51 :   0.3077 0.3077 0.2500  plane waves:    4551
 k-point    52 :   0.3846 0.3077 0.2500  plane waves:    4553
 k-point    53 :   0.4615 0.3077 0.2500  plane waves:    4564
 k-point    54 :   0.3846 0.3846 0.2500  plane waves:    4554
 k-point    55 :   0.4615 0.3846 0.2500  plane waves:    4568
 k-point    56 :   0.4615 0.4615 0.2500  plane waves:    4543
 k-point    57 :   0.0000 0.0000 0.5000  plane waves:    4532
 k-point    58 :   0.0769 0.0000 0.5000  plane waves:    4518
 k-point    59 :   0.1538 0.0000 0.5000  plane waves:    4530
 k-point    60 :   0.2308 0.0000 0.5000  plane waves:    4536
 k-point    61 :   0.3077 0.0000 0.5000  plane waves:    4552
 k-point    62 :   0.3846 0.0000 0.5000  plane waves:    4558
 k-point    63 :   0.4615 0.0000 0.5000  plane waves:    4552
 k-point    64 :   0.0769 0.0769 0.5000  plane waves:    4514
 k-point    65 :   0.1538 0.0769 0.5000  plane waves:    4534
 k-point    66 :   0.2308 0.0769 0.5000  plane waves:    4550
 k-point    67 :   0.3077 0.0769 0.5000  plane waves:    4554
 k-point    68 :   0.3846 0.0769 0.5000  plane waves:    4554
 k-point    69 :   0.4615 0.0769 0.5000  plane waves:    4542
 k-point    70 :   0.1538 0.1538 0.5000  plane waves:    4530
 k-point    71 :   0.2308 0.1538 0.5000  plane waves:    4536
 k-point    72 :   0.3077 0.1538 0.5000  plane waves:    4558
 k-point    73 :   0.3846 0.1538 0.5000  plane waves:    4558
 k-point    74 :   0.4615 0.1538 0.5000  plane waves:    4566
 k-point    75 :   0.2308 0.2308 0.5000  plane waves:    4542
 k-point    76 :   0.3077 0.2308 0.5000  plane waves:    4544
 k-point    77 :   0.3846 0.2308 0.5000  plane waves:    4560
 k-point    78 :   0.4615 0.2308 0.5000  plane waves:    4560
 k-point    79 :   0.3077 0.3077 0.5000  plane waves:    4546
 k-point    80 :   0.3846 0.3077 0.5000  plane waves:    4558
 k-point    81 :   0.4615 0.3077 0.5000  plane waves:    4558
 k-point    82 :   0.3846 0.3846 0.5000  plane waves:    4548
 k-point    83 :   0.4615 0.3846 0.5000  plane waves:    4568
 k-point    84 :   0.4615 0.4615 0.5000  plane waves:    4578

 maximum and minimum number of plane-waves per node :      4578     4506

 maximum number of plane-waves:      4578
 maximum index in each direction: 
   IXMAX=    7   IYMAX=    7   IZMAX=   21
   IXMIN=   -7   IYMIN=   -7   IZMIN=  -22


 serial   3D FFT for wavefunctions
 parallel 3D FFT for charge:
    minimum data exchange during FFTs selected (reduces bandwidth)


 total amount of memory used by VASP MPI-rank0   306845. kBytes
=======================================================================

   base      :      30000. kBytes
   nonl-proj :     112361. kBytes
   fftplans  :        955. kBytes
   grid      :       7297. kBytes
   one-center:        373. kBytes
   wavefun   :     155859. kBytes
 
     INWAV:  cpu time      0.0000: real time      0.0000
 Broyden mixing: mesh for mixing (old mesh)
   NGX = 15   NGY = 15   NGZ = 43
  (NGX  = 56   NGY  = 56   NGZ  =180)
  gives a total of   9675 points

 initial charge density was supplied:
 charge density of overlapping atoms calculated
 number of electron     156.0000000 magnetization       8.6850000
 charge density for first step will be calculated from the start-wavefunctions


--------------------------------------------------------------------------------------------------------


 Maximum index for augmentation-charges         1044 (set IRDMAX)


--------------------------------------------------------------------------------------------------------


 First call to EWALD:  gamma=   0.321
 Maximum number of real-space cells 4x 4x 2
 Maximum number of reciprocal cells 2x 2x 5

    FEWALD:  cpu time      0.0044: real time      0.0044


--------------------------------------- Ionic step        1  -------------------------------------------




--------------------------------------- Iteration      1(   1)  ---------------------------------------


    POTLOK:  cpu time      0.0317: real time      0.0321
    SETDIJ:  cpu time      0.0149: real time      0.0154
    TRIAL :  cpu time      6.4849: real time      6.5312
    CORREC:  cpu time      0.0027: real time      0.0027
    --------------------------------------------
      LOOP:  cpu time      6.6196: real time      6.7185

 eigenvalue-minimisations  : 43008
 total energy-change (2. order) : 0.1772827E+04  (-0.9199909E+04)
 number of electron     156.0000000 magnetization       8.6850000
 augmentation part      156.0000000 magnetization       8.6850000

 Free energy of the ion-electron system (eV)
  ---------------------------------------------------
  alpha Z        PSCENC =      1007.04218677
  Ewald energy   TEWEN  =    -17602.60135017
  -Hartree energ DENC   =     -6250.52076190
  -exchange      EXHF   =         0.00000000
  -V(xc)+E(xc)   XCENC  =       654.27588297
  PAW double counting   =     20093.46898604   -20817.34656735
  entropy T*S    EENTRO =        -0.00090225
  eigenvalues    EBANDS =       384.40617433
  atomic energy  EATOM  =     24304.10294433
  ---------------------------------------------------
  free energy    TOTEN  =      1772.82659277 eV

  energy without entropy =     1772.82749502  energy(sigma->0) =     1772.82689352


--------------------------------------------------------------------------------------------------------




--------------------------------------- Iteration      1(   2)  ---------------------------------------


    TRIAL :  cpu time      6.1832: real time      6.2258
    CORREC:  cpu time      0.0026: real time      0.0026
    --------------------------------------------
      LOOP:  cpu time      6.1927: real time      6.2503

 eigenvalue-minimisations  : 43008
 total energy-change (2. order) :-0.1766737E+04  (-0.1678300E+04)
 number of electron     156.0000000 magnetization       8.6850000
 augmentation part      156.0000000 magnetization       8.6850000

 Free energy of the ion-electron system (eV)
  ---------------------------------------------------
  alpha Z        PSCENC =      1007.04218677
  Ewald energy   TEWEN  =    -17602.60135017
  -Hartree energ DENC   =     -6250.52076190
  -exchange      EXHF   =         0.00000000
  -V(xc)+E(xc)   XCENC  =       654.27588297
  PAW double counting   =     20093.46898604   -20817.34656735
  entropy T*S    EENTRO =        -0.00212738
  eigenvalues    EBANDS =     -1382.32951486
  atomic energy  EATOM  =     24304.10294433
  ---------------------------------------------------
  free energy    TOTEN  =         6.08967844 eV

  energy without entropy =        6.09180582  energy(sigma->0) =        6.09038757


--------------------------------------------------------------------------------------------------------




--------------------------------------- Iteration      1(   3)  ---------------------------------------


    TRIAL :  cpu time      7.6229: real time      7.6736
    CORREC:  cpu time      0.0024: real time      0.0025
    --------------------------------------------
      LOOP:  cpu time      7.6337: real time      7.7002

 eigenvalue-minimisations  : 50624
 total energy-change (2. order) :-0.1087116E+03  (-0.1072771E+03)
 number of electron     156.0000000 magnetization       8.6850000
 augmentation part      156.0000000 magnetization       8.6850000

 Free energy of the ion-electron system (eV)
  ---------------------------------------------------
  alpha Z        PSCENC =      1007.04218677
  Ewald energy   TEWEN  =    -17602.60135017
  -Hartree energ DENC   =     -6250.52076190
  -exchange      EXHF   =         0.00000000
  -V(xc)+E(xc)   XCENC  =       654.27588297
  PAW double counting   =     20093.46898604   -20817.34656735
  entropy T*S    EENTRO =        -0.00332345
  eigenvalues    EBANDS =     -1491.03995755
  atomic energy  EATOM  =     24304.10294433
  ---------------------------------------------------
  free energy    TOTEN  =      -102.62196032 eV

  energy without entropy =     -102.61863686  energy(sigma->0) =     -102.62085250


--------------------------------------------------------------------------------------------------------




--------------------------------------- Iteration      1(   4)  ---------------------------------------


    TRIAL :  cpu time      6.6996: real time      6.7466
    CORREC:  cpu time      0.0024: real time      0.0024
    --------------------------------------------
      LOOP:  cpu time      6.7092: real time      6.7705

 eigenvalue-minimisations  : 45920
 total energy-change (2. order) :-0.1664540E+01  (-0.1664201E+01)
 number of electron     156.0000000 magnetization       8.6850000
 augmentation part      156.0000000 magnetization       8.6850000

 Free energy of the ion-electron system (eV)
  ---------------------------------------------------
  alpha Z        PSCENC =      1007.04218677
  Ewald energy   TEWEN  =    -17602.60135017
  -Hartree energ DENC   =     -6250.52076190
  -exchange      EXHF   =         0.00000000
  -V(xc)+E(xc)   XCENC  =       654.27588297
  PAW double counting   =     20093.46898604   -20817.34656735
  entropy T*S    EENTRO =        -0.00320289
  eigenvalues    EBANDS =     -1492.70461853
  atomic energy  EATOM  =     24304.10294433
  ---------------------------------------------------
  free energy    TOTEN  =      -104.28650074 eV

  energy without entropy =     -104.28329785  energy(sigma->0) =     -104.28543311


--------------------------------------------------------------------------------------------------------




--------------------------------------- Iteration      1(   5)  ---------------------------------------


    TRIAL :  cpu time      7.8207: real time      7.8742
    CORREC:  cpu time      0.0026: real time      0.0026
    CHARGE:  cpu time      0.1972: real time      0.1986
    --------------------------------------------
      LOOP:  cpu time      8.0285: real time      8.0983

 eigenvalue-minimisations  : 52768
 total energy-change (2. order) :-0.3503071E-01  (-0.3502970E-01)
 number of electron     155.9999891 magnetization       7.8095559
 augmentation part       79.2820775 magnetization       5.5638694

 Free energy of the ion-electron system (eV)
  ---------------------------------------------------
  alpha Z        PSCENC =      1007.04218677
  Ewald energy   TEWEN  =    -17602.60135017
  -Hartree energ DENC   =     -6250.52076190
  -exchange      EXHF   =         0.00000000
  -V(xc)+E(xc)   XCENC  =       654.27588297
  PAW double counting   =     20093.46898604   -20817.34656735
  entropy T*S    EENTRO =        -0.00320338
  eigenvalues    EBANDS =     -1492.73964876
  atomic energy  EATOM  =     24304.10294433
  ---------------------------------------------------
  free energy    TOTEN  =      -104.32153145 eV

  energy without entropy =     -104.31832807  energy(sigma->0) =     -104.32046366


--------------------------------------------------------------------------------------------------------




--------------------------------------- Iteration      1(   6)  ---------------------------------------


    POTLOK:  cpu time      0.0247: real time      0.0250
    SETDIJ:  cpu time      0.0079: real time      0.0080
    TRIAL :  cpu time      3.0617: real time      3.0909
    CORREC:  cpu time      1.1536: real time      1.1656
    CHARGE:  cpu time      0.1860: real time      0.1869
    --------------------------------------------
      LOOP:  cpu time      4.4414: real time      4.4969

 eigenvalue-minimisations  :     0
 total energy-change (2. order) : 0.6105427E+02  (-0.1365603E+02)
 number of electron     155.9999891 magnetization       8.1803065
 augmentation part       80.0155455 magnetization       5.7416102

 Free energy of the ion-electron system (eV)
  ---------------------------------------------------
  alpha Z        PSCENC =      1007.04218677
  Ewald energy   TEWEN  =    -17602.60135017
  -Hartree energ DENC   =     -5085.89384690
  -exchange      EXHF   =         0.00000000
  -V(xc)+E(xc)   XCENC  =       606.76078010
  PAW double counting   =     20388.34401205   -21047.47610839
  entropy T*S    EENTRO =         0.00339403
  eigenvalues    EBANDS =     -2613.54268056
  atomic energy  EATOM  =     24304.10294433
  ---------------------------------------------------
  free energy    TOTEN  =       -43.26726616 eV

  energy without entropy =      -43.27066019  energy(sigma->0) =      -43.26839750


--------------------------------------------------------------------------------------------------------




--------------------------------------- Iteration      1(   7)  ---------------------------------------


    POTLOK:  cpu time      0.0235: real time      0.0236
    SETDIJ:  cpu time      0.0082: real time      0.0083
    TRIAL :  cpu time      2.9790: real time      3.0073
    CORREC:  cpu time      1.2521: real time      1.2644
    CHARGE:  cpu time      0.1823: real time      0.1837
    --------------------------------------------
      LOOP:  cpu time      4.4546: real time      4.5097

 eigenvalue-minimisations  :     0
 total energy-change (2. order) :-0.1791250E+02  (-0.1637071E+02)
 number of electron     155.9999888 magnetization       8.5678482
 augmentation part       82.5305332 magnetization       6.1096670

 Free energy of the ion-electron system (eV)
  ---------------------------------------------------
  alpha Z        PSCENC =      1007.04218677
  Ewald energy   TEWEN  =    -17602.60135017
  -Hartree energ DENC   =     -5170.89472592
  -exchange      EXHF   =         0.00000000
  -V(xc)+E(xc)   XCENC  =       611.03238175
  PAW double counting   =     20507.42641884   -21185.09871754
  entropy T*S    EENTRO =         0.00215983
  eigenvalues    EBANDS =     -2532.19229530
  atomic energy  EATOM  =     24304.10294433
  ---------------------------------------------------
  free energy    TOTEN  =       -61.17976323 eV

  energy without entropy =      -61.18192306  energy(sigma->0) =      -61.18048317


--------------------------------------------------------------------------------------------------------




--------------------------------------- Iteration      1(   8)  ---------------------------------------


    POTLOK:  cpu time      0.0230: real time      0.0232
    SETDIJ:  cpu time      0.0079: real time      0.0079
    TRIAL :  cpu time      3.0333: real time      3.0619
    CORREC:  cpu time      1.1274: real time      1.1398
    CHARGE:  cpu time      0.1772: real time      0.1781
    --------------------------------------------
      LOOP:  cpu time      4.3789: real time      4.4332

 eigenvalue-minimisations  :     0
 total energy-change (2. order) :-0.1741946E+02  (-0.8217209E+01)
 number of electron     155.9999885 magnetization       8.1856542
 augmentation part       84.2043755 magnetization       6.0343462

 Free energy of the ion-electron system (eV)
  ---------------------------------------------------
  alpha Z        PSCENC =      1007.04218677
  Ewald energy   TEWEN  =    -17602.60135017
  -Hartree energ DENC   =     -5538.67232520
  -exchange      EXHF   =         0.00000000
  -V(xc)+E(xc)   XCENC  =       626.20777546
  PAW double counting   =     21098.75787773   -21842.61384174
  entropy T*S    EENTRO =         0.01167195
  eigenvalues    EBANDS =     -2130.82465468
  atomic energy  EATOM  =     24304.10294433
  ---------------------------------------------------
  free energy    TOTEN  =       -78.59922767 eV

  energy without entropy =      -78.61089962  energy(sigma->0) =      -78.60311832


--------------------------------------------------------------------------------------------------------




--------------------------------------- Iteration      1(   9)  ---------------------------------------


    POTLOK:  cpu time      0.0230: real time      0.0232
    SETDIJ:  cpu time      0.0082: real time      0.0083
    TRIAL :  cpu time      3.0187: real time      3.0476
    CORREC:  cpu time      1.1419: real time      1.1537
    CHARGE:  cpu time      0.1767: real time      0.1777
    --------------------------------------------
      LOOP:  cpu time      4.3779: real time      4.4332

 eigenvalue-minimisations  :     0
 total energy-change (2. order) :-0.7534892E+01  (-0.1287712E+01)
 number of electron     155.9999885 magnetization       8.0455381
 augmentation part       84.4876330 magnetization       5.9866425

 Free energy of the ion-electron system (eV)
  ---------------------------------------------------
  alpha Z        PSCENC =      1007.04218677
  Ewald energy   TEWEN  =    -17602.60135017
  -Hartree energ DENC   =     -5797.68169611
  -exchange      EXHF   =         0.00000000
  -V(xc)+E(xc)   XCENC  =       636.58114211
  PAW double counting   =     21613.10494320   -22401.58023798
  entropy T*S    EENTRO =         0.01985346
  eigenvalues    EBANDS =     -1845.11372362
  atomic energy  EATOM  =     24304.10294433
  ---------------------------------------------------
  free energy    TOTEN  =       -86.13411954 eV

  energy without entropy =      -86.15397300  energy(sigma->0) =      -86.14073736


--------------------------------------------------------------------------------------------------------




--------------------------------------- Iteration      1(  10)  ---------------------------------------


    POTLOK:  cpu time      0.0230: real time      0.0232
    SETDIJ:  cpu time      0.0079: real time      0.0080
    TRIAL :  cpu time      3.0742: real time      3.1035
    CORREC:  cpu time      1.1475: real time      1.1592
    CHARGE:  cpu time      0.1711: real time      0.1722
    --------------------------------------------
      LOOP:  cpu time      4.4340: real time      4.4889

 eigenvalue-minimisations  :     0
 total energy-change (2. order) :-0.1102532E+01  (-0.1599333E+01)
 number of electron     155.9999885 magnetization       8.3192011
 augmentation part       84.7697404 magnetization       6.1623408

 Free energy of the ion-electron system (eV)
  ---------------------------------------------------
  alpha Z        PSCENC =      1007.04218677
  Ewald energy   TEWEN  =    -17602.60135017
  -Hartree energ DENC   =     -5841.20700516
  -exchange      EXHF   =         0.00000000
  -V(xc)+E(xc)   XCENC  =       638.31577569
  PAW double counting   =     21702.64799015   -22494.93082524
  entropy T*S    EENTRO =         0.02366166
  eigenvalues    EBANDS =     -1800.62622180
  atomic energy  EATOM  =     24304.10294433
  ---------------------------------------------------
  free energy    TOTEN  =       -87.23665198 eV

  energy without entropy =      -87.26031363  energy(sigma->0) =      -87.24453920


--------------------------------------------------------------------------------------------------------




--------------------------------------- Iteration      1(  11)  ---------------------------------------


    POTLOK:  cpu time      0.0231: real time      0.0234
    SETDIJ:  cpu time      0.0080: real time      0.0080
    TRIAL :  cpu time      3.0171: real time      3.0463
    CORREC:  cpu time      1.1437: real time      1.1554
    CHARGE:  cpu time      0.1699: real time      0.1709
    --------------------------------------------
      LOOP:  cpu time      4.3699: real time      4.4270

 eigenvalue-minimisations  :     0
 total energy-change (2. order) :-0.1683932E+01  (-0.7826107E+00)
 number of electron     155.9999885 magnetization       8.5495462
 augmentation part       84.8199489 magnetization       6.3048032

 Free energy of the ion-electron system (eV)
  ---------------------------------------------------
  alpha Z        PSCENC =      1007.04218677
  Ewald energy   TEWEN  =    -17602.60135017
  -Hartree energ DENC   =     -5873.99384193
  -exchange      EXHF   =         0.00000000
  -V(xc)+E(xc)   XCENC  =       639.92290203
  PAW double counting   =     21783.88208255   -22573.35319412
  entropy T*S    EENTRO =         0.02559903
  eigenvalues    EBANDS =     -1773.94597472
  atomic energy  EATOM  =     24304.10294433
  ---------------------------------------------------
  free energy    TOTEN  =       -88.92058361 eV

  energy without entropy =      -88.94618264  energy(sigma->0) =      -88.92911662


--------------------------------------------------------------------------------------------------------




--------------------------------------- Iteration      1(  12)  ---------------------------------------


    POTLOK:  cpu time      0.0229: real time      0.0232
    SETDIJ:  cpu time      0.0072: real time      0.0073
    TRIAL :  cpu time      2.9193: real time      2.9477
    CORREC:  cpu time      1.2452: real time      1.2573
    CHARGE:  cpu time      0.1664: real time      0.1673
    --------------------------------------------
      LOOP:  cpu time      4.3689: real time      4.4265

 eigenvalue-minimisations  :     0
 total energy-change (2. order) :-0.9860945E+00  (-0.1344051E+01)
 number of electron     155.9999885 magnetization       8.5567370
 augmentation part       84.7820952 magnetization       6.3428532

 Free energy of the ion-electron system (eV)
  ---------------------------------------------------
  alpha Z        PSCENC =      1007.04218677
  Ewald energy   TEWEN  =    -17602.60135017
  -Hartree energ DENC   =     -5872.98578572
  -exchange      EXHF   =         0.00000000
  -V(xc)+E(xc)   XCENC  =       640.14153670
  PAW double counting   =     21790.90780988   -22575.17743836
  entropy T*S    EENTRO =         0.03490963
  eigenvalues    EBANDS =     -1781.36218054
  atomic energy  EATOM  =     24304.10294433
  ---------------------------------------------------
  free energy    TOTEN  =       -89.90667810 eV

  energy without entropy =      -89.94158773  energy(sigma->0) =      -89.91831464


--------------------------------------------------------------------------------------------------------




--------------------------------------- Iteration      1(  13)  ---------------------------------------


    POTLOK:  cpu time      0.0235: real time      0.0237
    SETDIJ:  cpu time      0.0070: real time      0.0071
    TRIAL :  cpu time      2.9351: real time      2.9639
    CORREC:  cpu time      1.1359: real time      1.1477
    CHARGE:  cpu time      0.1686: real time      0.1696
    --------------------------------------------
      LOOP:  cpu time      4.2782: real time      4.3340

 eigenvalue-minimisations  :     0
 total energy-change (2. order) :-0.1425114E+01  (-0.3286810E+00)
 number of electron     155.9999885 magnetization       8.3846674
 augmentation part       84.7635116 magnetization       6.2601993

 Free energy of the ion-electron system (eV)
  ---------------------------------------------------
  alpha Z        PSCENC =      1007.04218677
  Ewald energy   TEWEN  =    -17602.60135017
  -Hartree energ DENC   =     -5854.38498241
  -exchange      EXHF   =         0.00000000
  -V(xc)+E(xc)   XCENC  =       639.78844774
  PAW double counting   =     21757.98569148   -22528.69921052
  entropy T*S    EENTRO =         0.03499252
  eigenvalues    EBANDS =     -1814.60042933
  atomic energy  EATOM  =     24304.10294433
  ---------------------------------------------------
  free energy    TOTEN  =       -91.33179249 eV

  energy without entropy =      -91.36678501  energy(sigma->0) =      -91.34345666


--------------------------------------------------------------------------------------------------------




--------------------------------------- Iteration      1(  14)  ---------------------------------------


    POTLOK:  cpu time      0.0232: real time      0.0233
    SETDIJ:  cpu time      0.0073: real time      0.0073
    TRIAL :  cpu time      3.0250: real time      3.0532
    CORREC:  cpu time      1.1431: real time      1.1553
    CHARGE:  cpu time      0.1661: real time      0.1670
    --------------------------------------------
      LOOP:  cpu time      4.3729: real time      4.4283

 eigenvalue-minimisations  :     0
 total energy-change (2. order) :-0.3174888E+00  (-0.2845316E+00)
 number of electron     155.9999885 magnetization       8.3770421
 augmentation part       84.7738462 magnetization       6.2686933

 Free energy of the ion-electron system (eV)
  ---------------------------------------------------
  alpha Z        PSCENC =      1007.04218677
  Ewald energy   TEWEN  =    -17602.60135017
  -Hartree energ DENC   =     -5850.66631010
  -exchange      EXHF   =         0.00000000
  -V(xc)+E(xc)   XCENC  =       639.67569834
  PAW double counting   =     21744.77675999   -22510.94451992
  entropy T*S    EENTRO =         0.02387206
  eigenvalues    EBANDS =     -1823.06968301
  atomic energy  EATOM  =     24304.10294433
  ---------------------------------------------------
  free energy    TOTEN  =       -91.64928127 eV

  energy without entropy =      -91.67315333  energy(sigma->0) =      -91.65723863


--------------------------------------------------------------------------------------------------------




--------------------------------------- Iteration      1(  15)  ---------------------------------------


    POTLOK:  cpu time      0.0230: real time      0.0233
    SETDIJ:  cpu time      0.0076: real time      0.0077
    TRIAL :  cpu time      3.0226: real time      3.0512
    CORREC:  cpu time      1.1441: real time      1.1560
    CHARGE:  cpu time      0.1684: real time      0.1695
    --------------------------------------------
      LOOP:  cpu time      4.3743: real time      4.4308

 eigenvalue-minimisations  :     0
 total energy-change (2. order) :-0.2826426E+00  (-0.3316429E+00)
 number of electron     155.9999885 magnetization       8.5903372
 augmentation part       84.8133432 magnetization       6.4011724

 Free energy of the ion-electron system (eV)
  ---------------------------------------------------
  alpha Z        PSCENC =      1007.04218677
  Ewald energy   TEWEN  =    -17602.60135017
  -Hartree energ DENC   =     -5857.84427731
  -exchange      EXHF   =         0.00000000
  -V(xc)+E(xc)   XCENC  =       639.89014896
  PAW double counting   =     21730.06491404   -22491.70312403
  entropy T*S    EENTRO =         0.01513592
  eigenvalues    EBANDS =     -1820.90723848
  atomic energy  EATOM  =     24304.10294433
  ---------------------------------------------------
  free energy    TOTEN  =       -91.93192383 eV

  energy without entropy =      -91.94705974  energy(sigma->0) =      -91.93696913


--------------------------------------------------------------------------------------------------------




--------------------------------------- Iteration      1(  16)  ---------------------------------------


    POTLOK:  cpu time      0.0229: real time      0.0231
    SETDIJ:  cpu time      0.0081: real time      0.0081
    TRIAL :  cpu time      2.9931: real time      3.0222
    CORREC:  cpu time      1.1403: real time      1.1519
    CHARGE:  cpu time      0.1637: real time      0.1646
    --------------------------------------------
      LOOP:  cpu time      4.3399: real time      4.3932

 eigenvalue-minimisations  :     0
 total energy-change (2. order) :-0.3145194E+00  (-0.2251137E+00)
 number of electron     155.9999885 magnetization       8.5940669
 augmentation part       84.8899697 magnetization       6.4258902

 Free energy of the ion-electron system (eV)
  ---------------------------------------------------
  alpha Z        PSCENC =      1007.04218677
  Ewald energy   TEWEN  =    -17602.60135017
  -Hartree energ DENC   =     -5870.58150215
  -exchange      EXHF   =         0.00000000
  -V(xc)+E(xc)   XCENC  =       640.35910996
  PAW double counting   =     21722.52489333   -22479.65669987
  entropy T*S    EENTRO =         0.01280474
  eigenvalues    EBANDS =     -1813.45116131
  atomic energy  EATOM  =     24304.10294433
  ---------------------------------------------------
  free energy    TOTEN  =       -92.24644321 eV

  energy without entropy =      -92.25924795  energy(sigma->0) =      -92.25071145


--------------------------------------------------------------------------------------------------------




--------------------------------------- Iteration      1(  17)  ---------------------------------------


    POTLOK:  cpu time      0.0229: real time      0.0231
    SETDIJ:  cpu time      0.0081: real time      0.0081
    TRIAL :  cpu time      3.0787: real time      3.1090
    CORREC:  cpu time      1.1378: real time      1.1496
    CHARGE:  cpu time      0.1643: real time      0.1659
    --------------------------------------------
      LOOP:  cpu time      4.4198: real time      4.4788

 eigenvalue-minimisations  :     0
 total energy-change (2. order) :-0.2230512E+00  (-0.9945384E-01)
 number of electron     155.9999885 magnetization       8.4840888
 augmentation part       84.9389477 magnetization       6.3792681

 Free energy of the ion-electron system (eV)
  ---------------------------------------------------
  alpha Z        PSCENC =      1007.04218677
[...]
     61       7.4583      1.00000
     62       7.4817      1.00000
     63       7.7483      1.00000
     64       7.8018      1.00000
     65       7.9011      1.00000
     66       8.0373      1.00000
     67       8.0921      1.00000
     68       8.1372      1.00001
     69       8.1875      1.00008
     70       8.2146      1.00017
     71       8.3338      1.00266
     72       8.4212      1.01201
     73       8.4617      1.02030
     74       8.6219      1.00384
     75       8.6517      0.96434
     76       8.7662      0.61667
     77       8.7947      0.49822
     78       8.8510      0.27074
     79       9.1288     -0.01993
     80       9.1444     -0.01652
     81       9.1884     -0.00886
     82       9.2889     -0.00133
     83       9.4849     -0.00000
     84       9.7509     -0.00000
     85       9.7993     -0.00000
     86       9.8445     -0.00000
     87       9.9911     -0.00000
     88      10.2411     -0.00000
     89      10.3573     -0.00000
     90      10.4190     -0.00000
     91      10.4886     -0.00000
     92      10.5510     -0.00000
     93      10.7564     -0.00000
     94      10.8507     -0.00000
     95      11.0203     -0.00000
     96      11.1686     -0.00000
     97      11.3604     -0.00000
     98      11.4560     -0.00000
     99      11.8258     -0.00000
    100      13.3513      0.00000
    101      15.1015      0.00000
    102      15.1346      0.00000
    103      15.2024      0.00000
    104      16.2112      0.00000
    105      16.3296      0.00000
    106      16.7907      0.00000
    107      17.0540      0.00000
    108      17.3843      0.00000
    109      17.5436      0.00000
    110      17.9276      0.00000
    111      17.9916      0.00000
    112      21.9946      0.00000
    113      22.2333      0.00000
    114      22.6842      0.00000
    115      22.7364      0.00000
    116      22.9155      0.00000
    117      23.0854      0.00000
    118      23.7509      0.00000
    119      23.9074      0.00000
    120      25.8610      0.00000
    121      25.8894      0.00000
    122      25.9422      0.00000
    123      26.3089      0.00000
    124      26.6445      0.00000
    125      26.9759      0.00000
    126      27.1763      0.00000
    127      27.4287      0.00000
    128      27.8203      0.00000


--------------------------------------------------------------------------------------------------------


 soft charge-density along one line, spin component           1
         0         1         2         3         4         5         6         7         8         9
 total charge-density along one line
 
 soft charge-density along one line, spin component           2
         0         1         2         3         4         5         6         7         8         9
 total charge-density along one line
 
 pseudopotential strength for first ion, spin component:           1
-43.663  -0.000  -0.000   7.055   0.000   0.000  -0.000   0.005
 -0.000 -43.697  -0.000   0.000   7.069   0.000   0.000   0.000
 -0.000  -0.000 -43.616   0.000   0.000   7.035   0.000   0.000
  7.055   0.000   0.000   5.817   0.000   0.000  -0.000  -0.002
  0.000   7.069   0.000   0.000   5.813   0.000  -0.000  -0.000
  0.000   0.000   7.035   0.000   0.000   5.822  -0.000  -0.000
 -0.000   0.000   0.000  -0.000  -0.000  -0.000  -1.041  -0.000
  0.005   0.000   0.000  -0.002  -0.000  -0.000  -0.000  -1.056
 -0.000   0.007   0.000   0.000  -0.002  -0.000   0.000  -0.000
  0.000  -0.000  -0.001  -0.000   0.000   0.004  -0.000  -0.000
 -0.000  -0.003  -0.000   0.000   0.003   0.000   0.000   0.000
 -0.000   0.000   0.000   0.000  -0.000  -0.000  -1.571  -0.000
  0.004   0.000   0.000  -0.002  -0.000  -0.000  -0.000  -1.586
 -0.000   0.007  -0.000   0.000  -0.001  -0.000   0.000  -0.000
  0.000  -0.000  -0.001  -0.000   0.000   0.004  -0.000  -0.000
 -0.000  -0.003   0.000   0.000   0.003  -0.000   0.000   0.000
 -0.000   0.001  -0.000  -0.000   0.002   0.000   0.000   0.000
 -0.000   0.002   0.000  -0.000   0.005   0.000   0.000   0.000
 pseudopotential strength for first ion, spin component:           2
-46.044  -0.000  -0.000   8.056   0.000   0.000  -0.000   0.007
 -0.000 -46.106  -0.000   0.000   8.080   0.000  -0.000   0.000
 -0.000  -0.000 -45.895   0.000   0.000   7.995   0.000  -0.000
  8.056   0.000   0.000   5.530   0.000   0.000  -0.000  -0.004
  0.000   8.080   0.000   0.000   5.525   0.000   0.000  -0.000
  0.000   0.000   7.995   0.000   0.000   5.544  -0.000   0.000
 -0.000  -0.000   0.000  -0.000   0.000  -0.000  -2.875  -0.000
  0.007   0.000  -0.000  -0.004  -0.000   0.000  -0.000  -3.053
 -0.000   0.017   0.000   0.000  -0.007  -0.000   0.000  -0.000
 -0.000  -0.000   0.029   0.000   0.000  -0.013  -0.000  -0.000
 -0.000   0.011  -0.000   0.000  -0.004   0.000   0.000   0.000
 -0.000  -0.000   0.000   0.000   0.000  -0.000  -3.376  -0.000
  0.006   0.000  -0.000  -0.004  -0.000   0.000  -0.000  -3.552
 -0.000   0.016   0.000   0.000  -0.007  -0.000   0.000  -0.000
 -0.000  -0.000   0.028   0.000   0.000  -0.012  -0.000  -0.000
 -0.000   0.011  -0.000   0.000  -0.004   0.000   0.000   0.000
 -0.000  -0.006   0.000  -0.000   0.004   0.000   0.000   0.000
 -0.000  -0.015   0.000  -0.000   0.010   0.000   0.000   0.000
 total augmentation occupancy for first ion, spin component:           1
  1.992   0.000   0.000  -0.029   0.000   0.000   0.000  -0.007   0.000   0.000   0.000   0.000   0.008   0.000   0.000   0.000
  0.000   1.992  -0.000  -0.000  -0.029  -0.000   0.000   0.000  -0.005   0.000   0.003   0.000   0.000   0.005   0.000  -0.003
  0.000  -0.000   1.992   0.000  -0.000  -0.028  -0.000   0.000   0.000  -0.001   0.000   0.000   0.000   0.000   0.001   0.000
 -0.029  -0.000   0.000   0.162   0.000   0.000   0.000  -0.021   0.000   0.000   0.000   0.000   0.029   0.000  -0.000   0.000
  0.000  -0.029  -0.000   0.000   0.161  -0.000   0.000   0.000  -0.013   0.000   0.021   0.000   0.000   0.005   0.000  -0.035
  0.000  -0.000  -0.028   0.000  -0.000   0.142   0.000  -0.000   0.000   0.018   0.000   0.000  -0.000   0.000  -0.047   0.000
  0.000   0.000  -0.000   0.000   0.000   0.000   2.979   0.000   0.000   0.000   0.000  -1.512   0.000   0.000   0.000  -0.000
 -0.007   0.000   0.000  -0.021   0.000  -0.000   0.000   2.960  -0.000   0.000   0.000  -0.000  -1.815   0.000   0.000   0.000
  0.000  -0.005   0.000   0.000  -0.013   0.000   0.000  -0.000   3.390   0.000   0.219   0.000   0.000  -1.838   0.000  -0.134
  0.000   0.000  -0.001   0.000   0.000   0.018   0.000   0.000   0.000   2.746   0.000   0.000   0.000   0.000  -1.368   0.000
  0.000   0.003   0.000   0.000   0.021   0.000   0.000   0.000   0.219   0.000   3.006   0.000   0.000  -0.132   0.000  -1.600
  0.000   0.000   0.000   0.000   0.000   0.000  -1.512  -0.000   0.000   0.000   0.000   1.500  -0.000   0.000   0.000  -0.000
  0.008   0.000   0.000   0.029   0.000  -0.000   0.000  -1.815   0.000   0.000   0.000  -0.000   1.923   0.000   0.000   0.000
  0.000   0.005   0.000   0.000   0.005   0.000   0.000   0.000  -1.838   0.000  -0.132   0.000   0.000   1.580   0.000   0.048
  0.000   0.000   0.001  -0.000   0.000  -0.047   0.000   0.000   0.000  -1.368   0.000   0.000   0.000   0.000   1.362   0.000
  0.000  -0.003   0.000   0.000  -0.035   0.000  -0.000   0.000  -0.134   0.000  -1.600  -0.000   0.000   0.048   0.000   1.455
  0.000  -0.000  -0.000   0.000  -0.002   0.000   0.000   0.000  -0.118   0.000   0.175   0.000   0.000   0.069  -0.000  -0.124
  0.000   0.001  -0.000   0.000   0.000  -0.000   0.000   0.000   0.012   0.000  -0.012   0.000   0.000  -0.005  -0.000   0.007
 total augmentation occupancy for first ion, spin component:           2
  0.002  -0.000   0.000   0.009   0.000   0.000   0.000   0.001   0.000   0.000   0.000   0.000  -0.001   0.000   0.000   0.000
 -0.000   0.002  -0.000   0.000   0.009   0.000   0.000   0.000   0.004   0.000   0.005  -0.000   0.000  -0.004   0.000  -0.005
  0.000  -0.000   0.002   0.000   0.000   0.009   0.000  -0.000   0.000   0.011   0.000   0.000  -0.000   0.000  -0.011  -0.000
  0.009   0.000   0.000  -0.007   0.000   0.000   0.000   0.021  -0.000   0.000   0.000   0.000  -0.017   0.000   0.000   0.000
  0.000   0.009   0.000   0.000  -0.003  -0.000   0.000   0.000  -0.001   0.000  -0.033   0.000   0.000  -0.010   0.000   0.011
  0.000   0.000   0.009   0.000  -0.000  -0.001   0.000   0.000   0.000  -0.061  -0.000   0.000  -0.000   0.000   0.008   0.000
  0.000   0.000   0.000   0.000   0.000   0.000  -2.440   0.000   0.000   0.000   0.000   1.136   0.000   0.000   0.000  -0.000
  0.001   0.000  -0.000   0.021   0.000   0.000   0.000  -2.307   0.000   0.000   0.000   0.000   0.861  -0.000   0.000   0.000
  0.000   0.004   0.000  -0.000  -0.001   0.000   0.000   0.000  -2.867   0.000  -0.112   0.000   0.000   1.291   0.000   0.089
  0.000   0.000   0.011   0.000   0.000  -0.061   0.000   0.000   0.000  -2.180  -0.000   0.000   0.000   0.000   0.859   0.000
  0.000   0.005   0.000   0.000  -0.033  -0.000   0.000   0.000  -0.112  -0.000  -2.537   0.000   0.000   0.090   0.000   0.996
  0.000  -0.000   0.000   0.000   0.000   0.000   1.136   0.000   0.000   0.000   0.000  -0.357   0.000   0.000   0.000   0.000
 -0.001   0.000  -0.000  -0.017   0.000  -0.000   0.000   0.861   0.000   0.000   0.000   0.000  -0.081  -0.000  -0.000   0.000
  0.000  -0.004   0.000   0.000  -0.010   0.000   0.000  -0.000   1.291   0.000   0.090   0.000  -0.000  -0.476   0.000  -0.093
  0.000   0.000  -0.011   0.000   0.000   0.008   0.000   0.000   0.000   0.859   0.000   0.000  -0.000   0.000  -0.132   0.000
  0.000  -0.005  -0.000   0.000   0.011   0.000  -0.000   0.000   0.089   0.000   0.996   0.000   0.000  -0.093   0.000  -0.210
  0.000  -0.001  -0.000   0.000  -0.018  -0.000  -0.000   0.000   0.032   0.000  -0.057   0.000   0.000  -0.040   0.000   0.047
  0.000   0.000   0.000   0.000  -0.000   0.000   0.000   0.000  -0.008   0.000   0.007  -0.000  -0.000   0.002   0.000  -0.002


------------------------ aborting loop because EDIFF is reached ----------------------------------------





 total charge

# of ion       s       p       d       tot
------------------------------------------
    1        0.332   6.285   5.972  12.589
    2        0.330   6.285   5.995  12.609
    3        0.326   6.279   5.967  12.573
    4        0.333   6.289   5.960  12.582
    5        0.333   6.287   5.973  12.592
    6        0.329   6.287   5.971  12.586
    7        0.332   6.285   5.972  12.589
    8        0.330   6.285   5.995  12.609
    9        0.326   6.279   5.967  12.573
   10        0.728   0.596   8.001   9.325
   11        0.733   0.597   8.004   9.335
   12        0.721   0.622   7.999   9.342
--------------------------------------------------
tot          5.153  58.377  77.775 141.305



 magnetization (x)

# of ion       s       p       d       tot
------------------------------------------
    1       -0.016  -0.005  -2.778  -2.799
    2        0.004  -0.012   2.790   2.781
    3        0.012   0.001   2.788   2.801
    4       -0.018  -0.020  -2.776  -2.814
    5        0.015   0.019   2.740   2.775
    6        0.004  -0.015   2.906   2.894
    7       -0.016  -0.005  -2.778  -2.799
    8        0.004  -0.012   2.790   2.781
    9        0.012   0.001   2.788   2.801
   10        0.007   0.016  -0.069  -0.046
   11       -0.007  -0.017   0.059   0.035
   12       -0.041  -0.097   0.413   0.275
--------------------------------------------------
tot         -0.042  -0.147   8.874   8.686
 
    FORLOC:  cpu time      0.0010: real time      0.0010
    FORNL :  cpu time      0.7869: real time      0.7909
    STRESS:  cpu time      4.8147: real time      4.8509
    FORCOR:  cpu time      0.0220: real time      0.0222
    OFIELD:  cpu time      0.0001: real time      0.0001

  FORCE on cell =-STRESS in cart. coord.  units (eV):
  Direction    XX          YY          ZZ          XY          YZ          ZX
  --------------------------------------------------------------------------------------
  Alpha Z  1007.04219  1007.04219  1007.04219
  Ewald   -5851.65345 -5851.65345 -5899.31906     0.00000     0.00000     0.00000
  Hartree  1980.67029  1980.67029  1937.07662    -0.00000    -0.00000    -0.00000
  E(xc)    -941.61245  -941.61245  -941.56141     0.00000    -0.00000     0.00000
  Local     895.10562   895.10562   994.50082     0.00000     0.00000    -0.00000
  n-local  -226.75976  -241.82657  -235.53625    12.82849     0.06563     0.11216
  augment  1442.67865  1442.67865  1438.22210     0.00000     0.00000     0.00000
  Kinetic  1695.69300  1681.80934  1686.27586     1.98171     0.08536    -0.14256
  Fock        0.00000     0.00000     0.00000     0.00000     0.00000     0.00000
  -------------------------------------------------------------------------------------
  Total     -13.31116   -13.31116   -13.29912     0.00000     0.00000     0.00000
  in kB    -126.19426  -126.19426  -126.08020     0.00000     0.00000     0.00000
  external pressure =     -126.16 kB  Pullay stress =        0.00 kB


 VOLUME and BASIS-vectors are now :
 -----------------------------------------------------------------------------
  energy-cutoff  :      520.00
  volume of cell :      169.00
      direct lattice vectors                 reciprocal lattice vectors
     3.813261043  0.000000000  0.000000000     0.262242734  0.000000000  0.000000000
     0.000000000  3.813261043  0.000000000     0.000000000  0.262242734  0.000000000
     0.000000000  0.000000000 11.622341480     0.000000000  0.000000000  0.086041182

  length of vectors
     3.813261043  3.813261043 11.622341480     0.262242734  0.262242734  0.086041182


 FORCES acting on ions:
    Electron-Ion                     Ewald-Force                    Non-Local-Force
 -----------------------------------------------------------------------------------------------
   -.691E-13 0.127E-11 0.317E+01   -.186E-13 0.510E-14 -.414E+01   0.677E-19 0.105E-17 0.966E+00
   -.782E-13 0.283E-12 -.150E+02   -.159E-13 0.337E-13 0.152E+02   -.312E-20 -.264E-18 -.240E+00
   -.691E-13 0.138E-11 -.467E+02   -.812E-14 0.205E-13 0.455E+02   -.639E-18 -.122E-17 0.123E+01
   0.104E-11 -.355E-11 0.919E+02   0.140E-17 -.697E-14 -.890E+02   -.129E-18 -.409E-18 -.298E+01
   0.106E-11 0.760E-11 0.120E+03   0.295E-13 0.102E-13 -.117E+03   0.302E-18 -.105E-17 -.292E+01
   0.109E-11 -.470E-11 -.847E+02   -.407E-13 0.245E-13 0.849E+02   0.412E-19 0.385E-19 -.281E+00
   0.106E-11 0.157E-12 0.317E+01   -.175E-14 -.212E-13 -.414E+01   -.546E-18 -.163E-18 0.966E+00
   0.106E-11 0.827E-12 -.150E+02   0.323E-13 -.966E-14 0.152E+02   0.556E-18 -.480E-19 -.240E+00
   0.105E-11 -.596E-13 -.467E+02   0.457E-14 -.119E-13 0.455E+02   -.733E-18 -.643E-18 0.123E+01
   -.261E-13 -.391E-13 0.167E+02   0.129E-13 -.177E-13 -.172E+02   0.426E-18 0.258E-19 0.527E+00
   -.175E-13 -.224E-13 0.180E+02   -.379E-13 -.818E-14 -.184E+02   0.184E-18 0.986E-18 0.446E+00
   -.353E-13 -.168E-12 -.439E+02   0.966E-13 -.111E-13 0.437E+02   0.296E-18 0.295E-18 0.262E+00
 -----------------------------------------------------------------------------------------------
   0.611E-11 0.299E-11 0.103E+01   0.527E-13 0.727E-14 -.178E-12   -.178E-18 -.141E-17 -.103E+01
 
 
 POSITION                                       TOTAL-FORCE (eV/Angst)
 -----------------------------------------------------------------------------------
      0.00000      1.90663      1.93606         0.000000     -0.000000     -0.001218
      0.00000      1.90663      5.80509         0.000000      0.000000     -0.005560
      0.00000      1.90663      9.66618         0.000000      0.000000      0.002817
      1.90663      1.90663      0.09117        -0.000000     -0.000000      0.005741
      1.90663      1.90663      3.99334         0.000000     -0.000000      0.001830
      1.90663      1.90663      7.70369         0.000000      0.000000      0.002407
      1.90663      0.00000      1.93606        -0.000000      0.000000     -0.001218
      1.90663      0.00000      5.80509         0.000000     -0.000000     -0.005560
      1.90663      0.00000      9.66618        -0.000000     -0.000000      0.002817
      0.00000      0.00000     11.58364         0.000000      0.000000     -0.003017
      0.00000      0.00000      3.81351         0.000000      0.000000      0.005262
      0.00000      0.00000      7.73405         0.000000     -0.000000     -0.004301
 -----------------------------------------------------------------------------------
    total drift:                                0.000000      0.000000      0.002012


--------------------------------------------------------------------------------------------------------



  FREE ENERGIE OF THE ION-ELECTRON SYSTEM (eV)
  ---------------------------------------------------
  free  energy   TOTEN  =       -92.71458976 eV

  energy  without entropy=      -92.71906426  energy(sigma->0) =      -92.71608126
 


--------------------------------------------------------------------------------------------------------


    POTLOK:  cpu time      0.0359: real time      0.0373


--------------------------------------------------------------------------------------------------------




--------------------------------------------------------------------------------------------------------


  
 reached required accuracy - stopping structural energy minimisation
     LOOP+:  cpu time    245.2098: real time    248.5638
    4ORBIT:  cpu time      0.0000: real time      0.0000



 total charge

# of ion       s       p       d       tot
------------------------------------------
    1        0.332   6.285   5.972  12.589
    2        0.330   6.285   5.995  12.609
    3        0.326   6.279   5.967  12.573
    4        0.333   6.289   5.960  12.582
    5        0.333   6.287   5.973  12.592
    6        0.329   6.287   5.971  12.586
    7        0.332   6.285   5.972  12.589
    8        0.330   6.285   5.995  12.609
    9        0.326   6.279   5.967  12.573
   10        0.728   0.596   8.001   9.325
   11        0.733   0.597   8.004   9.335
   12        0.721   0.622   7.999   9.342
--------------------------------------------------
tot          5.153  58.377  77.775 141.305



 magnetization (x)

# of ion       s       p       d       tot
------------------------------------------
    1       -0.016  -0.005  -2.778  -2.799
    2        0.004  -0.012   2.790   2.781
    3        0.012   0.001   2.788   2.801
    4       -0.018  -0.020  -2.776  -2.814
    5        0.015   0.019   2.740   2.775
    6        0.004  -0.015   2.906   2.894
    7       -0.016  -0.005  -2.778  -2.799
    8        0.004  -0.012   2.790   2.781
    9        0.012   0.001   2.788   2.801
   10        0.007   0.016  -0.069  -0.046
   11       -0.007  -0.017   0.059   0.035
   12       -0.041  -0.097   0.413   0.275
--------------------------------------------------
tot         -0.042  -0.147   8.874   8.686
 

 total amount of memory used by VASP MPI-rank0   306845. kBytes
=======================================================================

   base      :      30000. kBytes
   nonl-proj :     112361. kBytes
   fftplans  :        955. kBytes
   grid      :       7297. kBytes
   one-center:        373. kBytes
   wavefun   :     155859. kBytes
 
  
  
 General timing and accounting informations for this job:
 ========================================================
  
                  Total CPU time used (sec):      265.349
                            User time (sec):      258.522
                          System time (sec):        6.827
                         Elapsed time (sec):      274.971
  
                   Maximum memory used (kb):     1259400.
                   Average memory used (kb):          N/A
  
                          Minor page faults:       216148
                          Major page faults:          153
                 Voluntary context switches:        12074
