 vasp.6.4.3 19Mar24 (build Mar 26 2024 14:05:37) complex                        
  
 executed on             LinuxIFC date 2024.12.16  20:45:50
 running  128 mpi-ranks, on    1 nodes
 distrk:  each k-point on   32 cores,    4 groups
 distr:  one band on NCORE=   1 cores,   32 groups


--------------------------------------------------------------------------------------------------------


 INCAR:
   ALGO = Normal
   EDIFF = 1e-06
   EDIFFG = -0.01
   ENCUT = 520
   GGA = Pe
   IBRION = -1
   ISIF = 4
   ISMEAR = -5
   ISPIN = 2
   KPAR = 4
   LCHARG = True
   LORBIT = 11
   LREAL = False
   LWAVE = False
   MAGMOM = 1*-2.799 1*2.781 1*2.801 1*-2.814 1*2.775 1*2.894 1*-2.799 1*2.781 1*2.801 1*-0.046 1*0.035 1*0.275
   NELM = 200
   NSW = 0
   PREC = Accurate
   SIGMA = 0.2

 POTCAR:    PAW_PBE Fe_pv 02Aug2007               
 POTCAR:    PAW_PBE Pt 04Feb2005                  
 -----------------------------------------------------------------------------
|                                                                             |
|           W    W    AA    RRRRR   N    N  II  N    N   GGGG   !!!           |
|           W    W   A  A   R    R  NN   N  II  NN   N  G    G  !!!           |
|           W    W  A    A  R    R  N N  N  II  N N  N  G       !!!           |
|           W WW W  AAAAAA  RRRRR   N  N N  II  N  N N  G  GGG   !            |
|           WW  WW  A    A  R   R   N   NN  II  N   NN  G    G                |
|           W    W  A    A  R    R  N    N  II  N    N   GGGG   !!!           |
|                                                                             |
|     For optimal performance we recommend to set                             |
|       NCORE = 2 up to number-of-cores-per-socket                            |
|     NCORE specifies how many cores store one orbital (NPAR=cpu/NCORE).      |
|     This setting can greatly improve the performance of VASP for DFT.       |
|     The default, NCORE=1 might be grossly inefficient on modern             |
|     multi-core architectures or massively parallel machines. Do your        |
|     own testing! More info at https://www.vasp.at/wiki/index.php/NCORE      |
|     Unfortunately you need to use the default for GW and RPA                |
|     calculations (for HF NCORE is supported but not extensively tested      |
|     yet).                                                                   |
|                                                                             |
 -----------------------------------------------------------------------------

 POTCAR:    PAW_PBE Fe_pv 02Aug2007               
   SHA256 =  5d22e414b1f82158bf2c7ecb8b97b28fd0923e48cadc1c3bf74d524558f5dd32 Fe_pv/POTCAR          
   COPYR  = (c) Copyright 02Aug2007 Georg Kresse                                                    
   COPYR  = This file is part of the software VASP. Any use, copying, and all other rights are regul
   COPYR  = If you do not have a valid VASP license, you may not use, copy or distribute this file. 
   VRHFIN =Fe:  3pd7s1                                                                              
   LEXCH  = PE                                                                                      
   EATOM  =  2457.4239 eV,  180.6156 Ry                                                             
                                                                                                    
   TITEL  = PAW_PBE Fe_pv 02Aug2007                                                                 
   LULTRA =        F    use ultrasoft PP ?                                                          
   IUNSCR =        1    unscreen: 0-lin 1-nonlin 2-no                                               
   RPACOR =    1.750    partial core radius                                                         
   POMASS =   55.847; ZVAL   =   14.000    mass and valenz                                          
   RCORE  =    2.200    outmost cutoff radius                                                       
   RWIGS  =    2.200; RWIGS  =    1.164    wigner-seitz radius (au A)                               
   ENMAX  =  293.238; ENMIN  =  219.928 eV                                                          
   ICORE  =        3    local potential                                                             
   LCOR   =        T    correct aug charges                                                         
   LPAW   =        T    paw PP                                                                      
   EAUG   =  578.342                                                                                
   DEXC   =    0.000                                                                                
   RMAX   =    2.249    core radius for proj-oper                                                   
   RAUG   =    1.300    factor for augmentation sphere                                              
   RDEP   =    2.296    radius for radial grids                                                     
   RDEPT  =    1.766    core radius for aug-charge                                                  
                                                                                                    
   Atomic configuration                                                                             
    8 entries                                                                                       
     n  l   j            E        occ.                                                              
     1  0  0.50     -6993.8440   2.0000                                                             
     2  0  0.50      -814.6047   2.0000                                                             
     2  1  1.50      -693.3689   6.0000                                                             
     3  0  0.50       -89.4732   2.0000                                                             
     3  1  1.50       -55.6373   6.0000                                                             
     3  2  2.50        -3.8151   7.0000                                                             
     4  0  0.50        -4.2551   1.0000                                                             
     4  3  2.50        -1.3606   0.0000                                                             
   Description                                                                                      
     l       E           TYP  RCUT    TYP  RCUT                                                     
     1    -55.6372668     23  2.000                                                                 
     1     -5.4423304     23  2.000                                                                 
     2     -3.8151096     23  2.200                                                                 
     2     -5.1756922     23  2.200                                                                 
     0     -4.2550951     23  2.200                                                                 
     0     27.2116520     23  2.200                                                                 
     3     -1.3605826     23  2.200                                                                 
  local pseudopotential read in
  partial core-charges read in
  partial kinetic energy density read in
  atomic valenz-charges read in
  non local Contribution for L=           1  read in
    real space projection operators read in
  non local Contribution for L=           1  read in
    real space projection operators read in
  non local Contribution for L=           2  read in
    real space projection operators read in
  non local Contribution for L=           2  read in
    real space projection operators read in
  non local Contribution for L=           0  read in
    real space projection operators read in
  non local Contribution for L=           0  read in
    real space projection operators read in
    PAW grid and wavefunctions read in
 
   number of l-projection  operators is LMAX  =           6
   number of lm-projection operators is LMMAX =          18
 
 POTCAR:    PAW_PBE Pt 04Feb2005                  
   SHA256 =  3ed90460adef76debcff1cfb73ee1349b515b1a3db03439735b44de3a8db7dc8 Pt/POTCAR             
   COPYR  = (c) Copyright 04Feb2005 Georg Kresse                                                    
   COPYR  = This file is part of the software VASP. Any use, copying, and all other rights are regul
   COPYR  = If you do not have a valid VASP license, you may not use, copy or distribute this file. 
   VRHFIN =Pt: s1d9                                                                                 
   LEXCH  = PE                                                                                      
   EATOM  =   729.1176 eV,   53.5886 Ry                                                             
                                                                                                    
   TITEL  = PAW_PBE Pt 04Feb2005                                                                    
   LULTRA =        F    use ultrasoft PP ?                                                          
   IUNSCR =        1    unscreen: 0-lin 1-nonlin 2-no                                               
   RPACOR =    2.330    partial core radius                                                         
   POMASS =  195.080; ZVAL   =   10.000    mass and valenz                                          
   RCORE  =    2.600    outmost cutoff radius                                                       
   RWIGS  =    2.750; RWIGS  =    1.455    wigner-seitz radius (au A)                               
   ENMAX  =  230.283; ENMIN  =  172.712 eV                                                          
   ICORE  =        3    local potential                                                             
   LCOR   =        T    correct aug charges                                                         
   LPAW   =        T    paw PP                                                                      
   EAUG   =  358.966                                                                                
   DEXC   =    0.000                                                                                
   RMAX   =    2.658    core radius for proj-oper                                                   
   RAUG   =    1.300    factor for augmentation sphere                                              
   RDEP   =    2.761    radius for radial grids                                                     
   RDEPT  =    2.203    core radius for aug-charge                                                  
                                                                                                    
   Atomic configuration                                                                             
   16 entries                                                                                       
     n  l   j            E        occ.                                                              
     1  0  0.50    -78401.1885   2.0000                                                             
     2  0  0.50    -13770.7750   2.0000                                                             
     2  1  1.50    -11931.0468   6.0000                                                             
     3  0  0.50     -3234.7234   2.0000                                                             
     3  1  1.50     -2699.2216   6.0000                                                             
     3  2  2.50     -2119.5714  10.0000                                                             
     4  0  0.50      -695.1528   2.0000                                                             
     4  1  1.50      -519.6034   6.0000                                                             
     4  2  2.50      -306.6786  10.0000                                                             
     4  3  3.50       -70.1041  14.0000                                                             
     5  0  0.50      -101.7747   2.0000                                                             
     5  1  1.50       -55.9873   6.0000                                                             
     5  2  2.50        -6.1423   9.0000                                                             
     6  0  0.50        -5.6573   1.0000                                                             
     6  1  1.50        -6.8029   0.0000                                                             
     5  3  2.50        -1.3606   0.0000                                                             
   Description                                                                                      
     l       E           TYP  RCUT    TYP  RCUT                                                     
     2     -6.1423404     23  2.500                                                                 
     2     -7.5029230     23  2.500                                                                 
     0     -5.6573207     23  2.500                                                                 
     0      0.7416693     23  2.500                                                                 
     1     -2.7211652     23  2.600                                                                 
     1     20.4087390     23  2.600                                                                 
     3     -1.3605826     23  2.500                                                                 
  local pseudopotential read in
  partial core-charges read in
  partial kinetic energy density read in
  atomic valenz-charges read in
  non local Contribution for L=           2  read in
    real space projection operators read in
  non local Contribution for L=           2  read in
    real space projection operators read in
  non local Contribution for L=           0  read in
    real space projection operators read in
  non local Contribution for L=           0  read in
    real space projection operators read in
  non local Contribution for L=           1  read in
    real space projection operators read in
  non local Contribution for L=           1  read in
    real space projection operators read in
    PAW grid and wavefunctions read in
 
   number of l-projection  operators is LMAX  =           6
   number of lm-projection operators is LMMAX =          18
 
  PAW_PBE Fe_pv 02Aug2007               :
 energy of atom  1       EATOM=-2457.4239
 kinetic energy error for atom=    0.0062 (will be added to EATOM!!)
  PAW_PBE Pt 04Feb2005                  :
 energy of atom  2       EATOM= -729.1176
 kinetic energy error for atom=    0.0032 (will be added to EATOM!!)
 
 
 POSCAR: Fe9 Pt3
  positions in direct lattice
  velocities in cartesian coordinates


 exchange-correlation table for PE
   RHO(1)=    0.500       N(1)  =     2000
   RHO(2)=  100.500       N(2)  =     4000
 


--------------------------------------------------------------------------------------------------------


 ion  position               nearest neighbor table
   1  0.000  0.500  0.167-   4 2.65   4 2.65  11 2.68  11 2.68   7 2.70   7 2.70   7 2.70   7 2.70
                            10 2.74  10 2.74
   2  0.000  0.500  0.499-   5 2.63   5 2.63   6 2.69   6 2.69   8 2.70   8 2.70   8 2.70   8 2.70
                            12 2.71  12 2.71  11 2.76  11 2.76
   3  0.000  0.500  0.832-   9 2.70   9 2.70   9 2.70   9 2.70  10 2.70  10 2.70  12 2.71  12 2.71
                             6 2.74   6 2.74
   4  0.500  0.500  0.008-   1 2.65   7 2.65   7 2.65   1 2.65  10 2.70  10 2.70  10 2.70  10 2.70

   5  0.500  0.500  0.344-   2 2.63   8 2.63   8 2.63   2 2.63  11 2.70  11 2.70  11 2.70  11 2.70

   6  0.500  0.500  0.663-   2 2.69   8 2.69   8 2.69   2 2.69  12 2.70  12 2.70  12 2.70  12 2.70
                             9 2.74   3 2.74   9 2.74   3 2.74
   7  0.500  0.000  0.167-   4 2.65   4 2.65  11 2.68  11 2.68   1 2.70   1 2.70   1 2.70   1 2.70
                            10 2.74  10 2.74
   8  0.500  0.000  0.499-   5 2.63   5 2.63   6 2.69   6 2.69   2 2.70   2 2.70   2 2.70   2 2.70
                            12 2.71  12 2.71  11 2.76  11 2.76
   9  0.500  0.000  0.832-   3 2.70   3 2.70   3 2.70   3 2.70  10 2.70  10 2.70  12 2.71  12 2.71
                             6 2.74   6 2.74
  10  0.000  0.000  0.997-   4 2.70   4 2.70   4 2.70   4 2.70   3 2.70   9 2.70   9 2.70   3 2.70
                             1 2.74   7 2.74   7 2.74   1 2.74
  11  0.000  0.000  0.328-   1 2.68   7 2.68   1 2.68   7 2.68   5 2.70   5 2.70   5 2.70   5 2.70
                             2 2.76   2 2.76   8 2.76   8 2.76
  12  0.000  0.000  0.665-   6 2.70   6 2.70   6 2.70   6 2.70   2 2.71   8 2.71   8 2.71   2 2.71
                             3 2.71   3 2.71   9 2.71   9 2.71
 
  LATTYP: Found a simple tetragonal cell.
 ALAT       =     3.8132610427
 C/A-ratio  =     3.0478746012
  
  Lattice vectors:
  
 A1 = (   3.8132610427,   0.0000000000,   0.0000000000)
 A2 = (   0.0000000000,   3.8132610427,   0.0000000000)
 A3 = (   0.0000000000,   0.0000000000,  11.6223414797)


Analysis of symmetry for initial positions (statically):
=====================================================================
 Subroutine PRICEL returns:
 Original cell was already a primitive cell.
 

 Routine SETGRP: Setting up the symmetry group for a 
 simple tetragonal supercell.


 Subroutine GETGRP returns: Found  8 space group operations
 (whereof  8 operations were pure point group operations)
 out of a pool of 16 trial point group operations.


The static configuration has the point symmetry C_4v.


Analysis of symmetry for dynamics (positions and initial velocities):
=====================================================================
 Subroutine PRICEL returns:
 Original cell was already a primitive cell.
 

 Routine SETGRP: Setting up the symmetry group for a 
 simple tetragonal supercell.


 Subroutine GETGRP returns: Found  8 space group operations
 (whereof  8 operations were pure point group operations)
 out of a pool of 16 trial point group operations.


The dynamic configuration has the point symmetry C_4v.


Analysis of structural, dynamic, and magnetic symmetry:
=====================================================================
 Subroutine PRICEL returns:
 Original cell was already a primitive cell.
 

 Routine SETGRP: Setting up the symmetry group for a 
 simple tetragonal supercell.


 Subroutine GETGRP returns: Found  8 space group operations
 (whereof  8 operations were pure point group operations)
 out of a pool of 16 trial point group operations.


The overall configuration has the point symmetry C_4v.


 Subroutine INISYM returns: Found  8 space group operations
 (whereof  8 operations are pure point group operations),
 and found     1 'primitive' translations


----------------------------------------------------------------------------------------

                                     Primitive cell                                     

  volume of cell :     169.0000

  direct lattice vectors                    reciprocal lattice vectors
     3.813261043  0.000000000  0.000000000     0.262242734  0.000000000  0.000000000
     0.000000000  3.813261043  0.000000000     0.000000000  0.262242734  0.000000000
     0.000000000  0.000000000 11.622341480     0.000000000  0.000000000  0.086041182

  length of vectors
     3.813261043  3.813261043 11.622341480     0.262242734  0.262242734  0.086041182

  position of ions in fractional coordinates (direct lattice)
     0.000000000  0.500000000  0.166580761
     0.000000000  0.500000000  0.499476679
     0.000000000  0.500000000  0.831689404
     0.500000000  0.500000000  0.007844052
     0.500000000  0.500000000  0.343591761
     0.500000000  0.500000000  0.662834818
     0.500000000  0.000000000  0.166580761
     0.500000000  0.000000000  0.499476679
     0.500000000  0.000000000  0.831689404
     0.000000000  0.000000000  0.996669760
     0.000000000  0.000000000  0.328119289
     0.000000000  0.000000000  0.665446630

  ion indices of the primitive-cell ions
   primitive index   ion index
                 1           1
                 2           2
                 3           3
                 4           4
                 5           5
                 6           6
                 7           7
                 8           8
                 9           9
                10          10
                11          11
                12          12

----------------------------------------------------------------------------------------

 
 
 KPOINTS: pymatgen with grid density = 8800 / numb

Automatic generation of k-mesh.
 Grid dimensions read from file:
 generate k-points for:   13   13    4

 Generating k-lattice:

  Cartesian coordinates                     Fractional coordinates (reciprocal lattice)
     0.020172518  0.000000000  0.000000000     0.076923077  0.000000000  0.000000000
     0.000000000  0.020172518  0.000000000     0.000000000  0.076923077  0.000000000
     0.000000000  0.000000000  0.021510296     0.000000000  0.000000000  0.250000000

  Length of vectors
     0.020172518  0.020172518  0.021510296

  Shift w.r.t. Gamma in fractional coordinates (k-lattice)
     0.000000000  0.000000000  0.000000000

 TETIRR: Found   1010 inequivalent tetrahedra from     4056
 
 Subroutine IBZKPT returns following result:
 ===========================================
 
 Found     84 irreducible k-points:
 
 Following reciprocal coordinates:
            Coordinates               Weight
  0.000000  0.000000  0.000000      1.000000
  0.076923  0.000000  0.000000      4.000000
  0.153846  0.000000  0.000000      4.000000
  0.230769  0.000000  0.000000      4.000000
  0.307692  0.000000  0.000000      4.000000
  0.384615  0.000000  0.000000      4.000000
  0.461538  0.000000  0.000000      4.000000
  0.076923  0.076923  0.000000      4.000000
  0.153846  0.076923  0.000000      8.000000
  0.230769  0.076923  0.000000      8.000000
  0.307692  0.076923  0.000000      8.000000
  0.384615  0.076923  0.000000      8.000000
  0.461538  0.076923  0.000000      8.000000
  0.153846  0.153846  0.000000      4.000000
  0.230769  0.153846  0.000000      8.000000
  0.307692  0.153846  0.000000      8.000000
  0.384615  0.153846  0.000000      8.000000
  0.461538  0.153846  0.000000      8.000000
  0.230769  0.230769  0.000000      4.000000
  0.307692  0.230769  0.000000      8.000000
  0.384615  0.230769  0.000000      8.000000
  0.461538  0.230769  0.000000      8.000000
  0.307692  0.307692  0.000000      4.000000
  0.384615  0.307692  0.000000      8.000000
  0.461538  0.307692  0.000000      8.000000
  0.384615  0.384615  0.000000      4.000000
  0.461538  0.384615  0.000000      8.000000
  0.461538  0.461538  0.000000      4.000000
  0.000000  0.000000  0.250000      2.000000
  0.076923  0.000000  0.250000      8.000000
  0.153846  0.000000  0.250000      8.000000
  0.230769  0.000000  0.250000      8.000000
  0.307692  0.000000  0.250000      8.000000
  0.384615  0.000000  0.250000      8.000000
  0.461538  0.000000  0.250000      8.000000
  0.076923  0.076923  0.250000      8.000000
  0.153846  0.076923  0.250000     16.000000
  0.230769  0.076923  0.250000     16.000000
  0.307692  0.076923  0.250000     16.000000
  0.384615  0.076923  0.250000     16.000000
  0.461538  0.076923  0.250000     16.000000
  0.153846  0.153846  0.250000      8.000000
  0.230769  0.153846  0.250000     16.000000
  0.307692  0.153846  0.250000     16.000000
  0.384615  0.153846  0.250000     16.000000
  0.461538  0.153846  0.250000     16.000000
  0.230769  0.230769  0.250000      8.000000
  0.307692  0.230769  0.250000     16.000000
  0.384615  0.230769  0.250000     16.000000
  0.461538  0.230769  0.250000     16.000000
  0.307692  0.307692  0.250000      8.000000
  0.384615  0.307692  0.250000     16.000000
  0.461538  0.307692  0.250000     16.000000
  0.384615  0.384615  0.250000      8.000000
  0.461538  0.384615  0.250000     16.000000
  0.461538  0.461538  0.250000      8.000000
  0.000000  0.000000  0.500000      1.000000
  0.076923  0.000000  0.500000      4.000000
  0.153846  0.000000  0.500000      4.000000
  0.230769  0.000000  0.500000      4.000000
  0.307692  0.000000  0.500000      4.000000
  0.384615  0.000000  0.500000      4.000000
  0.461538  0.000000  0.500000      4.000000
  0.076923  0.076923  0.500000      4.000000
  0.153846  0.076923  0.500000      8.000000
  0.230769  0.076923  0.500000      8.000000
  0.307692  0.076923  0.500000      8.000000
  0.384615  0.076923  0.500000      8.000000
  0.461538  0.076923  0.500000      8.000000
  0.153846  0.153846  0.500000      4.000000
  0.230769  0.153846  0.500000      8.000000
  0.307692  0.153846  0.500000      8.000000
  0.384615  0.153846  0.500000      8.000000
  0.461538  0.153846  0.500000      8.000000
  0.230769  0.230769  0.500000      4.000000
  0.307692  0.230769  0.500000      8.000000
  0.384615  0.230769  0.500000      8.000000
  0.461538  0.230769  0.500000      8.000000
  0.307692  0.307692  0.500000      4.000000
  0.384615  0.307692  0.500000      8.000000
  0.461538  0.307692  0.500000      8.000000
  0.384615  0.384615  0.500000      4.000000
  0.461538  0.384615  0.500000      8.000000
  0.461538  0.461538  0.500000      4.000000
 
 Following cartesian coordinates:
            Coordinates               Weight
  0.000000  0.000000  0.000000      1.000000
  0.020173  0.000000  0.000000      4.000000
  0.040345  0.000000  0.000000      4.000000
  0.060518  0.000000  0.000000      4.000000
  0.080690  0.000000  0.000000      4.000000
  0.100863  0.000000  0.000000      4.000000
  0.121035  0.000000  0.000000      4.000000
  0.020173  0.020173  0.000000      4.000000
  0.040345  0.020173  0.000000      8.000000
  0.060518  0.020173  0.000000      8.000000
  0.080690  0.020173  0.000000      8.000000
  0.100863  0.020173  0.000000      8.000000
  0.121035  0.020173  0.000000      8.000000
  0.040345  0.040345  0.000000      4.000000
  0.060518  0.040345  0.000000      8.000000
  0.080690  0.040345  0.000000      8.000000
  0.100863  0.040345  0.000000      8.000000
  0.121035  0.040345  0.000000      8.000000
  0.060518  0.060518  0.000000      4.000000
  0.080690  0.060518  0.000000      8.000000
  0.100863  0.060518  0.000000      8.000000
  0.121035  0.060518  0.000000      8.000000
  0.080690  0.080690  0.000000      4.000000
  0.100863  0.080690  0.000000      8.000000
  0.121035  0.080690  0.000000      8.000000
  0.100863  0.100863  0.000000      4.000000
  0.121035  0.100863  0.000000      8.000000
  0.121035  0.121035  0.000000      4.000000
  0.000000  0.000000  0.021510      2.000000
  0.020173  0.000000  0.021510      8.000000
  0.040345  0.000000  0.021510      8.000000
  0.060518  0.000000  0.021510      8.000000
  0.080690  0.000000  0.021510      8.000000
  0.100863  0.000000  0.021510      8.000000
  0.121035  0.000000  0.021510      8.000000
  0.020173  0.020173  0.021510      8.000000
  0.040345  0.020173  0.021510     16.000000
  0.060518  0.020173  0.021510     16.000000
  0.080690  0.020173  0.021510     16.000000
  0.100863  0.020173  0.021510     16.000000
  0.121035  0.020173  0.021510     16.000000
  0.040345  0.040345  0.021510      8.000000
  0.060518  0.040345  0.021510     16.000000
  0.080690  0.040345  0.021510     16.000000
  0.100863  0.040345  0.021510     16.000000
  0.121035  0.040345  0.021510     16.000000
  0.060518  0.060518  0.021510      8.000000
  0.080690  0.060518  0.021510     16.000000
  0.100863  0.060518  0.021510     16.000000
  0.121035  0.060518  0.021510     16.000000
  0.080690  0.080690  0.021510      8.000000
  0.100863  0.080690  0.021510     16.000000
  0.121035  0.080690  0.021510     16.000000
  0.100863  0.100863  0.021510      8.000000
  0.121035  0.100863  0.021510     16.000000
  0.121035  0.121035  0.021510      8.000000
  0.000000  0.000000  0.043021      1.000000
  0.020173  0.000000  0.043021      4.000000
  0.040345  0.000000  0.043021      4.000000
  0.060518  0.000000  0.043021      4.000000
  0.080690  0.000000  0.043021      4.000000
  0.100863  0.000000  0.043021      4.000000
  0.121035  0.000000  0.043021      4.000000
  0.020173  0.020173  0.043021      4.000000
  0.040345  0.020173  0.043021      8.000000
  0.060518  0.020173  0.043021      8.000000
  0.080690  0.020173  0.043021      8.000000
  0.100863  0.020173  0.043021      8.000000
  0.121035  0.020173  0.043021      8.000000
  0.040345  0.040345  0.043021      4.000000
  0.060518  0.040345  0.043021      8.000000
  0.080690  0.040345  0.043021      8.000000
  0.100863  0.040345  0.043021      8.000000
  0.121035  0.040345  0.043021      8.000000
  0.060518  0.060518  0.043021      4.000000
  0.080690  0.060518  0.043021      8.000000
  0.100863  0.060518  0.043021      8.000000
  0.121035  0.060518  0.043021      8.000000
  0.080690  0.080690  0.043021      4.000000
  0.100863  0.080690  0.043021      8.000000
  0.121035  0.080690  0.043021      8.000000
  0.100863  0.100863  0.043021      4.000000
  0.121035  0.100863  0.043021      8.000000
  0.121035  0.121035  0.043021      4.000000
 


--------------------------------------------------------------------------------------------------------




 Dimension of arrays:
   k-points           NKPTS =     84   k-points in BZ     NKDIM =     84   number of bands    NBANDS=    128
   number of dos      NEDOS =    301   number of ions     NIONS =     12
   non local maximal  LDIM  =      6   non local SUM 2l+1 LMDIM =     18
   total plane-waves  NPLWV =  70560
   max r-space proj   IRMAX =      1   max aug-charges    IRDMAX=  25484
   dimension x,y,z NGX =    28 NGY =   28 NGZ =   90
   dimension x,y,z NGXF=    56 NGYF=   56 NGZF=  180
   support grid    NGXF=    56 NGYF=   56 NGZF=  180
   ions per type =               9   3
   NGX,Y,Z   is equivalent  to a cutoff of  12.21, 12.21, 12.87 a.u.
   NGXF,Y,Z  is equivalent  to a cutoff of  24.41, 24.41, 25.75 a.u.

 SYSTEM =  unknown system                          
 POSCAR =  Fe9 Pt3                                 

 Startparameter for this run:
   NWRITE =      2    write-flag & timer
   PREC   = accura    normal or accurate (medium, high low for compatibility)
   ISTART =      0    job   : 0-new  1-cont  2-samecut
   ICHARG =      2    charge: 1-file 2-atom 10-const
   ISPIN  =      2    spin polarized calculation?
   LNONCOLLINEAR =      F non collinear calculations
   LSORBIT =      F    spin-orbit coupling
   INIWAV =      1    electr: 0-lowe 1-rand  2-diag
   LASPH  =      F    aspherical Exc in radial PAW
 Electronic Relaxation 1
   ENCUT  =  520.0 eV  38.22 Ry    6.18 a.u.   7.09  7.09 21.61*2*pi/ulx,y,z
   ENINI  =  520.0     initial cutoff
   ENAUG  =  578.3 eV  augmentation charge cutoff
   NELM   =    200;   NELMIN=  2; NELMDL=  0     # of ELM steps 
   EDIFF  = 0.1E-05   stopping-criterion for ELM
   LREAL  =      F    real-space projection
   NLSPLINE    = F    spline interpolate recip. space projectors
   LCOMPAT=      F    compatible to vasp.4.4
   GGA_COMPAT  = T    GGA compatible to vasp.4.4-vasp.4.6
   LMAXPAW     = -100 max onsite density
   LMAXMIX     =    2 max onsite mixed and CHGCAR
   VOSKOWN=      0    Vosko Wilk Nusair interpolation
   ROPT   =    0.00000   0.00000
 Ionic relaxation
   EDIFFG = -.1E-01   stopping-criterion for IOM
   NSW    =      0    number of steps for IOM
   NBLOCK =      1;   KBLOCK =      1    inner block; outer block 
   IBRION =     -1    ionic relax: 0-MD 1-quasi-New 2-CG
   NFREE  =      0    steps in history (QN), initial steepest desc. (CG)
   ISIF   =      4    stress and relaxation
   IWAVPR =     10    prediction:  0-non 1-charg 2-wave 3-comb
   ISYM   =      2    0-nonsym 1-usesym 2-fastsym
   LCORR  =      T    Harris-Foulkes like correction to forces

   POTIM  = 0.5000    time-step for ionic-motion
   TEIN   =    0.0    initial temperature
   TEBEG  =    0.0;   TEEND  =   0.0 temperature during run
   SMASS  =  -3.00    Nose mass-parameter (am)
   estimated Nose-frequenzy (Omega)   =  0.10E-29 period in steps = 0.13E+47 mass=  -0.332E-27a.u.
   SCALEE = 1.0000    scale energy and forces
   NPACO  =    256;   APACO  = 10.0  distance and # of slots for P.C.
   PSTRESS=    0.0 pullay stress

  Mass of Ions in am
   POMASS =  55.85195.08
  Ionic Valenz
   ZVAL   =  14.00 10.00
  Atomic Wigner-Seitz radii
   RWIGS  =  -1.00 -1.00
  virtual crystal weights 
   VCA    =   1.00  1.00
   NELECT =     156.0000    total number of electrons
   NUPDOWN=      -1.0000    fix difference up-down

 DOS related values:
   EMIN   =  10.00;   EMAX   =-10.00  energy-range for DOS
   EFERMI =   0.00;   METHOD = LEGACY      
   ISMEAR =    -5;   SIGMA  =   0.20  broadening in eV -4-tet -1-fermi 0-gaus

 Electronic relaxation 2 (details)
   IALGO  =     38    algorithm
   LDIAG  =      T    sub-space diagonalisation (order eigenvalues)
   LSUBROT=      F    optimize rotation matrix (better conditioning)
   TURBO    =      0    0=normal 1=particle mesh
   IRESTART =      0    0=no restart 2=restart with 2 vectors
   NREBOOT  =      0    no. of reboots
   NMIN     =      0    reboot dimension
   EREF     =   0.00    reference energy to select bands
   IMIX   =      4    mixing-type and parameters
     AMIX     =   0.40;   BMIX     =  1.00
     AMIX_MAG =   1.60;   BMIX_MAG =  1.00
     AMIN     =   0.10
     WC   =   100.;   INIMIX=   1;  MIXPRE=   1;  MAXMIX= -45

 Intra band minimization:
   WEIMIN = 0.0000     energy-eigenvalue tresh-hold
   EBREAK =  0.20E-08  absolut break condition
   DEPER  =   0.30     relativ break condition  

   TIME   =   0.40     timestep for ELM

  volume/ion in A,a.u.               =      14.08        95.04
  Fermi-wavevector in a.u.,A,eV,Ry     =   1.593997  3.012217 34.570036  2.540826
  Thomas-Fermi vector in A             =   2.692140
 
 Write flags
   LWAVE        =      F    write WAVECAR
   LDOWNSAMPLE  =      F    k-point downsampling of WAVECAR
   LCHARG       =      T    write CHGCAR
   LVTOT        =      F    write LOCPOT, total local potential
   LVHAR        =      F    write LOCPOT, Hartree potential only
   WRT_POTENTIAL= false  ! write potential to hdf5 file
   LELF         =      F    write electronic localiz. function (ELF)
   LORBIT       =     11    0 simple, 1 ext, 2 COOP (PROOUT), +10 PAW based schemes


 Dipole corrections
   LMONO      =      F    monopole corrections only (constant potential shift)
   LDIPOL     =      F    correct potential (dipole corrections)
   IDIPOL     =      0    1-x, 2-y, 3-z, 4-all directions 
   EPSILON    =  1.0000000 bulk dielectric constant
   LVACPOTAV  =      F  vacuum potentials using an averaging scheme for the charge density
   VACPOTFLAT =  0.1000000 required flatness to determine vacuum potential
 Exchange correlation treatment:
   GGA     = PE    functional components
   XC_C    = 1    coefficients multiplying the functional components
   LIBXC   =     F    Libxc                    
   VOSKOWN =     0    Vosko Wilk Nusair interpolation
   LHFCALC =     F    Hartree Fock is set to
   LHFONE  =     F    Hartree Fock one center treatment
   AEXX    =    0.0000 exact exchange contribution

 Parameters of functionals:
   PE:
     No parameter
 
 Van der Waals corrections
   IVDW    =     0    specifies the selected vdW correction

 Linear response parameters
   LEPSILON=     F    determine dielectric tensor
   LRPA    =     F    only Hartree local field effects (RPA)
   LNABLA  =     F    use nabla operator in PAW spheres
   LVEL    =     F    velocity operator in full k-point grid
   CSHIFT  =0.1000    complex shift for real part using Kramers Kronig
   OMEGAMAX=  -1.0    maximum frequency
   DEG_THRESHOLD= 0.2000000E-02 threshold for treating states as degnerate
   RTIME   =   -0.100 relaxation time in fs
  (WPLASMAI=    0.000 imaginary part of plasma frequency in eV, 0.658/RTIME)
   DFIELD  = 0.0000000 0.0000000 0.0000000 field for delta impulse in time
 
  Optional k-point grid parameters
   LKPOINTS_OPT  =     F    use optional k-point grid
   KPOINTS_OPT_MODE=     1    mode for optional k-point grid
 
 Orbital magnetization related:
   ORBITALMAG=     F  switch on orbital magnetization
   LCHIMAG   =     F  perturbation theory with respect to B field
   DQ        =  0.001000  dq finite difference perturbation B field
   LLRAUG    =     F  two centre corrections for induced B field
   LBONE     =     F  B-component reconstruction in AE one-centre
   LVGVCALC  =     T  calculate vGv susceptibility
   LVGVAPPL  =     F  apply vGv susceptibility instead of pGv for G=0

 Random number generation:
   RANDOM_GENERATOR = DEFAULT
   PCG_SEED         = not used


--------------------------------------------------------------------------------------------------------


 Static calculation
 charge density and potential will be updated during run
 spin polarized calculation
 Variant of blocked Davidson
 Davidson routine will perform the subspace rotation
 perform sub-space diagonalisation
    after iterative eigenvector-optimisation
 modified Broyden-mixing scheme, WC =      100.0
 initial mixing is a Kerker type mixing with AMIX =  0.4000 and BMIX =      1.0000
 Hartree-type preconditioning will be used
 using additional bands           50
 reciprocal scheme for non local part
 use partial core corrections
 calculate Harris-corrections to forces 
   (improved forces if not selfconsistent)
 use gradient corrections 
 use of overlap-Matrix (Vanderbilt PP)
 Fermi weights with tetrahedron method with Bloechl corrections


--------------------------------------------------------------------------------------------------------


  energy-cutoff  :      520.00
  volume of cell :      169.00
      direct lattice vectors                 reciprocal lattice vectors
     3.813261043  0.000000000  0.000000000     0.262242734  0.000000000  0.000000000
     0.000000000  3.813261043  0.000000000     0.000000000  0.262242734  0.000000000
     0.000000000  0.000000000 11.622341480     0.000000000  0.000000000  0.086041182

  length of vectors
     3.813261043  3.813261043 11.622341480     0.262242734  0.262242734  0.086041182


 
 k-points in units of 2pi/SCALE and weight: pymatgen with grid density = 8800 / numb
   0.00000000  0.00000000  0.00000000       0.001
   0.02017252  0.00000000  0.00000000       0.006
   0.04034504  0.00000000  0.00000000       0.006
   0.06051755  0.00000000  0.00000000       0.006
   0.08069007  0.00000000  0.00000000       0.006
   0.10086259  0.00000000  0.00000000       0.006
   0.12103511  0.00000000  0.00000000       0.006
   0.02017252  0.02017252  0.00000000       0.006
   0.04034504  0.02017252  0.00000000       0.012
   0.06051755  0.02017252  0.00000000       0.012
   0.08069007  0.02017252  0.00000000       0.012
   0.10086259  0.02017252  0.00000000       0.012
   0.12103511  0.02017252  0.00000000       0.012
   0.04034504  0.04034504  0.00000000       0.006
   0.06051755  0.04034504  0.00000000       0.012
   0.08069007  0.04034504  0.00000000       0.012
   0.10086259  0.04034504  0.00000000       0.012
   0.12103511  0.04034504  0.00000000       0.012
   0.06051755  0.06051755  0.00000000       0.006
   0.08069007  0.06051755  0.00000000       0.012
   0.10086259  0.06051755  0.00000000       0.012
   0.12103511  0.06051755  0.00000000       0.012
   0.08069007  0.08069007  0.00000000       0.006
   0.10086259  0.08069007  0.00000000       0.012
   0.12103511  0.08069007  0.00000000       0.012
   0.10086259  0.10086259  0.00000000       0.006
   0.12103511  0.10086259  0.00000000       0.012
   0.12103511  0.12103511  0.00000000       0.006
   0.00000000  0.00000000  0.02151030       0.003
   0.02017252  0.00000000  0.02151030       0.012
   0.04034504  0.00000000  0.02151030       0.012
   0.06051755  0.00000000  0.02151030       0.012
   0.08069007  0.00000000  0.02151030       0.012
   0.10086259  0.00000000  0.02151030       0.012
   0.12103511  0.00000000  0.02151030       0.012
   0.02017252  0.02017252  0.02151030       0.012
   0.04034504  0.02017252  0.02151030       0.024
   0.06051755  0.02017252  0.02151030       0.024
   0.08069007  0.02017252  0.02151030       0.024
   0.10086259  0.02017252  0.02151030       0.024
   0.12103511  0.02017252  0.02151030       0.024
   0.04034504  0.04034504  0.02151030       0.012
   0.06051755  0.04034504  0.02151030       0.024
   0.08069007  0.04034504  0.02151030       0.024
   0.10086259  0.04034504  0.02151030       0.024
   0.12103511  0.04034504  0.02151030       0.024
   0.06051755  0.06051755  0.02151030       0.012
   0.08069007  0.06051755  0.02151030       0.024
   0.10086259  0.06051755  0.02151030       0.024
   0.12103511  0.06051755  0.02151030       0.024
   0.08069007  0.08069007  0.02151030       0.012
   0.10086259  0.08069007  0.02151030       0.024
   0.12103511  0.08069007  0.02151030       0.024
   0.10086259  0.10086259  0.02151030       0.012
   0.12103511  0.10086259  0.02151030       0.024
   0.12103511  0.12103511  0.02151030       0.012
   0.00000000  0.00000000  0.04302059       0.001
   0.02017252  0.00000000  0.04302059       0.006
   0.04034504  0.00000000  0.04302059       0.006
   0.06051755  0.00000000  0.04302059       0.006
   0.08069007  0.00000000  0.04302059       0.006
   0.10086259  0.00000000  0.04302059       0.006
   0.12103511  0.00000000  0.04302059       0.006
   0.02017252  0.02017252  0.04302059       0.006
   0.04034504  0.02017252  0.04302059       0.012
   0.06051755  0.02017252  0.04302059       0.012
   0.08069007  0.02017252  0.04302059       0.012
   0.10086259  0.02017252  0.04302059       0.012
   0.12103511  0.02017252  0.04302059       0.012
   0.04034504  0.04034504  0.04302059       0.006
   0.06051755  0.04034504  0.04302059       0.012
   0.08069007  0.04034504  0.04302059       0.012
   0.10086259  0.04034504  0.04302059       0.012
   0.12103511  0.04034504  0.04302059       0.012
   0.06051755  0.06051755  0.04302059       0.006
   0.08069007  0.06051755  0.04302059       0.012
   0.10086259  0.06051755  0.04302059       0.012
   0.12103511  0.06051755  0.04302059       0.012
   0.08069007  0.08069007  0.04302059       0.006
   0.10086259  0.08069007  0.04302059       0.012
   0.12103511  0.08069007  0.04302059       0.012
   0.10086259  0.10086259  0.04302059       0.006
   0.12103511  0.10086259  0.04302059       0.012
   0.12103511  0.12103511  0.04302059       0.006
 
 k-points in reciprocal lattice and weights: pymatgen with grid density = 8800 / numb
   0.00000000  0.00000000  0.00000000       0.001
   0.07692308  0.00000000  0.00000000       0.006
   0.15384615  0.00000000  0.00000000       0.006
   0.23076923  0.00000000  0.00000000       0.006
   0.30769231  0.00000000  0.00000000       0.006
   0.38461538  0.00000000  0.00000000       0.006
   0.46153846  0.00000000  0.00000000       0.006
   0.07692308  0.07692308  0.00000000       0.006
   0.15384615  0.07692308  0.00000000       0.012
   0.23076923  0.07692308  0.00000000       0.012
   0.30769231  0.07692308  0.00000000       0.012
   0.38461538  0.07692308  0.00000000       0.012
   0.46153846  0.07692308  0.00000000       0.012
   0.15384615  0.15384615  0.00000000       0.006
   0.23076923  0.15384615  0.00000000       0.012
   0.30769231  0.15384615  0.00000000       0.012
   0.38461538  0.15384615  0.00000000       0.012
   0.46153846  0.15384615  0.00000000       0.012
   0.23076923  0.23076923  0.00000000       0.006
   0.30769231  0.23076923  0.00000000       0.012
   0.38461538  0.23076923  0.00000000       0.012
   0.46153846  0.23076923  0.00000000       0.012
   0.30769231  0.30769231  0.00000000       0.006
   0.38461538  0.30769231  0.00000000       0.012
   0.46153846  0.30769231  0.00000000       0.012
   0.38461538  0.38461538  0.00000000       0.006
   0.46153846  0.38461538  0.00000000       0.012
   0.46153846  0.46153846  0.00000000       0.006
   0.00000000  0.00000000  0.25000000       0.003
   0.07692308  0.00000000  0.25000000       0.012
   0.15384615  0.00000000  0.25000000       0.012
   0.23076923  0.00000000  0.25000000       0.012
   0.30769231  0.00000000  0.25000000       0.012
   0.38461538  0.00000000  0.25000000       0.012
   0.46153846  0.00000000  0.25000000       0.012
   0.07692308  0.07692308  0.25000000       0.012
   0.15384615  0.07692308  0.25000000       0.024
   0.23076923  0.07692308  0.25000000       0.024
   0.30769231  0.07692308  0.25000000       0.024
   0.38461538  0.07692308  0.25000000       0.024
   0.46153846  0.07692308  0.25000000       0.024
   0.15384615  0.15384615  0.25000000       0.012
   0.23076923  0.15384615  0.25000000       0.024
   0.30769231  0.15384615  0.25000000       0.024
   0.38461538  0.15384615  0.25000000       0.024
   0.46153846  0.15384615  0.25000000       0.024
   0.23076923  0.23076923  0.25000000       0.012
   0.30769231  0.23076923  0.25000000       0.024
   0.38461538  0.23076923  0.25000000       0.024
   0.46153846  0.23076923  0.25000000       0.024
   0.30769231  0.30769231  0.25000000       0.012
   0.38461538  0.30769231  0.25000000       0.024
   0.46153846  0.30769231  0.25000000       0.024
   0.38461538  0.38461538  0.25000000       0.012
   0.46153846  0.38461538  0.25000000       0.024
   0.46153846  0.46153846  0.25000000       0.012
   0.00000000  0.00000000  0.50000000       0.001
   0.07692308  0.00000000  0.50000000       0.006
   0.15384615  0.00000000  0.50000000       0.006
   0.23076923  0.00000000  0.50000000       0.006
   0.30769231  0.00000000  0.50000000       0.006
   0.38461538  0.00000000  0.50000000       0.006
   0.46153846  0.00000000  0.50000000       0.006
   0.07692308  0.07692308  0.50000000       0.006
   0.15384615  0.07692308  0.50000000       0.012
   0.23076923  0.07692308  0.50000000       0.012
   0.30769231  0.07692308  0.50000000       0.012
   0.38461538  0.07692308  0.50000000       0.012
   0.46153846  0.07692308  0.50000000       0.012
   0.15384615  0.15384615  0.50000000       0.006
   0.23076923  0.15384615  0.50000000       0.012
   0.30769231  0.15384615  0.50000000       0.012
   0.38461538  0.15384615  0.50000000       0.012
   0.46153846  0.15384615  0.50000000       0.012
   0.23076923  0.23076923  0.50000000       0.006
   0.30769231  0.23076923  0.50000000       0.012
   0.38461538  0.23076923  0.50000000       0.012
   0.46153846  0.23076923  0.50000000       0.012
   0.30769231  0.30769231  0.50000000       0.006
   0.38461538  0.30769231  0.50000000       0.012
   0.46153846  0.30769231  0.50000000       0.012
   0.38461538  0.38461538  0.50000000       0.006
   0.46153846  0.38461538  0.50000000       0.012
   0.46153846  0.46153846  0.50000000       0.006
 
 position of ions in fractional coordinates (direct lattice) 
   0.00000000  0.50000000  0.16658076
   0.00000000  0.50000000  0.49947668
   0.00000000  0.50000000  0.83168940
   0.50000000  0.50000000  0.00784405
   0.50000000  0.50000000  0.34359176
   0.50000000  0.50000000  0.66283482
   0.50000000  0.00000000  0.16658076
   0.50000000  0.00000000  0.49947668
   0.50000000  0.00000000  0.83168940
   0.00000000  0.00000000  0.99666976
   0.00000000  0.00000000  0.32811929
   0.00000000  0.00000000  0.66544663
 
 position of ions in cartesian coordinates  (Angst):
   0.00000000  1.90663052  1.93605849
   0.00000000  1.90663052  5.80508853
   0.00000000  1.90663052  9.66617826
   1.90663052  1.90663052  0.09116626
   1.90663052  1.90663052  3.99334078
   1.90663052  1.90663052  7.70369259
   1.90663052  0.00000000  1.93605849
   1.90663052  0.00000000  5.80508853
   1.90663052  0.00000000  9.66617826
   0.00000000  0.00000000 11.58363629
   0.00000000  0.00000000  3.81351442
   0.00000000  0.00000000  7.73404797
 


--------------------------------------------------------------------------------------------------------


 k-point     1 :   0.0000 0.0000 0.0000  plane waves:    4531
 k-point     2 :   0.0769 0.0000 0.0000  plane waves:    4511
 k-point     3 :   0.1538 0.0000 0.0000  plane waves:    4512
 k-point     4 :   0.2308 0.0000 0.0000  plane waves:    4542
 k-point     5 :   0.3077 0.0000 0.0000  plane waves:    4564
 k-point     6 :   0.3846 0.0000 0.0000  plane waves:    4566
 k-point     7 :   0.4615 0.0000 0.0000  plane waves:    4574
 k-point     8 :   0.0769 0.0769 0.0000  plane waves:    4512
 k-point     9 :   0.1538 0.0769 0.0000  plane waves:    4518
 k-point    10 :   0.2308 0.0769 0.0000  plane waves:    4549
 k-point    11 :   0.3077 0.0769 0.0000  plane waves:    4553
 k-point    12 :   0.3846 0.0769 0.0000  plane waves:    4552
 k-point    13 :   0.4615 0.0769 0.0000  plane waves:    4557
 k-point    14 :   0.1538 0.1538 0.0000  plane waves:    4534
 k-point    15 :   0.2308 0.1538 0.0000  plane waves:    4553
 k-point    16 :   0.3077 0.1538 0.0000  plane waves:    4565
 k-point    17 :   0.3846 0.1538 0.0000  plane waves:    4552
 k-point    18 :   0.4615 0.1538 0.0000  plane waves:    4558
 k-point    19 :   0.2308 0.2308 0.0000  plane waves:    4542
 k-point    20 :   0.3077 0.2308 0.0000  plane waves:    4560
 k-point    21 :   0.3846 0.2308 0.0000  plane waves:    4561
 k-point    22 :   0.4615 0.2308 0.0000  plane waves:    4555
 k-point    23 :   0.3077 0.3077 0.0000  plane waves:    4544
 k-point    24 :   0.3846 0.3077 0.0000  plane waves:    4553
 k-point    25 :   0.4615 0.3077 0.0000  plane waves:    4564
 k-point    26 :   0.3846 0.3846 0.0000  plane waves:    4556
 k-point    27 :   0.4615 0.3846 0.0000  plane waves:    4570
 k-point    28 :   0.4615 0.4615 0.0000  plane waves:    4566
 k-point    29 :   0.0000 0.0000 0.2500  plane waves:    4531
 k-point    30 :   0.0769 0.0000 0.2500  plane waves:    4506
 k-point    31 :   0.1538 0.0000 0.2500  plane waves:    4520
 k-point    32 :   0.2308 0.0000 0.2500  plane waves:    4548
 k-point    33 :   0.3077 0.0000 0.2500  plane waves:    4563
 k-point    34 :   0.3846 0.0000 0.2500  plane waves:    4556
 k-point    35 :   0.4615 0.0000 0.2500  plane waves:    4557
 k-point    36 :   0.0769 0.0769 0.2500  plane waves:    4515
 k-point    37 :   0.1538 0.0769 0.2500  plane waves:    4526
 k-point    38 :   0.2308 0.0769 0.2500  plane waves:    4541
 k-point    39 :   0.3077 0.0769 0.2500  plane waves:    4551
 k-point    40 :   0.3846 0.0769 0.2500  plane waves:    4561
 k-point    41 :   0.4615 0.0769 0.2500  plane waves:    4554
 k-point    42 :   0.1538 0.1538 0.2500  plane waves:    4532
 k-point    43 :   0.2308 0.1538 0.2500  plane waves:    4542
 k-point    44 :   0.3077 0.1538 0.2500  plane waves:    4550
 k-point    45 :   0.3846 0.1538 0.2500  plane waves:    4562
 k-point    46 :   0.4615 0.1538 0.2500  plane waves:    4558
 k-point    47 :   0.2308 0.2308 0.2500  plane waves:    4556
 k-point    48 :   0.3077 0.2308 0.2500  plane waves:    4558
 k-point    49 :   0.3846 0.2308 0.2500  plane waves:    4554
 k-point    50 :   0.4615 0.2308 0.2500  plane waves:    4565
 k-point    51 :   0.3077 0.3077 0.2500  plane waves:    4551
 k-point    52 :   0.3846 0.3077 0.2500  plane waves:    4553
 k-point    53 :   0.4615 0.3077 0.2500  plane waves:    4564
 k-point    54 :   0.3846 0.3846 0.2500  plane waves:    4554
 k-point    55 :   0.4615 0.3846 0.2500  plane waves:    4568
 k-point    56 :   0.4615 0.4615 0.2500  plane waves:    4543
 k-point    57 :   0.0000 0.0000 0.5000  plane waves:    4532
 k-point    58 :   0.0769 0.0000 0.5000  plane waves:    4518
 k-point    59 :   0.1538 0.0000 0.5000  plane waves:    4530
 k-point    60 :   0.2308 0.0000 0.5000  plane waves:    4536
 k-point    61 :   0.3077 0.0000 0.5000  plane waves:    4552
 k-point    62 :   0.3846 0.0000 0.5000  plane waves:    4558
 k-point    63 :   0.4615 0.0000 0.5000  plane waves:    4552
 k-point    64 :   0.0769 0.0769 0.5000  plane waves:    4514
 k-point    65 :   0.1538 0.0769 0.5000  plane waves:    4534
 k-point    66 :   0.2308 0.0769 0.5000  plane waves:    4550
 k-point    67 :   0.3077 0.0769 0.5000  plane waves:    4554
 k-point    68 :   0.3846 0.0769 0.5000  plane waves:    4554
 k-point    69 :   0.4615 0.0769 0.5000  plane waves:    4542
 k-point    70 :   0.1538 0.1538 0.5000  plane waves:    4530
 k-point    71 :   0.2308 0.1538 0.5000  plane waves:    4536
 k-point    72 :   0.3077 0.1538 0.5000  plane waves:    4558
 k-point    73 :   0.3846 0.1538 0.5000  plane waves:    4558
 k-point    74 :   0.4615 0.1538 0.5000  plane waves:    4566
 k-point    75 :   0.2308 0.2308 0.5000  plane waves:    4542
 k-point    76 :   0.3077 0.2308 0.5000  plane waves:    4544
 k-point    77 :   0.3846 0.2308 0.5000  plane waves:    4560
 k-point    78 :   0.4615 0.2308 0.5000  plane waves:    4560
 k-point    79 :   0.3077 0.3077 0.5000  plane waves:    4546
 k-point    80 :   0.3846 0.3077 0.5000  plane waves:    4558
 k-point    81 :   0.4615 0.3077 0.5000  plane waves:    4558
 k-point    82 :   0.3846 0.3846 0.5000  plane waves:    4548
 k-point    83 :   0.4615 0.3846 0.5000  plane waves:    4568
 k-point    84 :   0.4615 0.4615 0.5000  plane waves:    4578

 maximum and minimum number of plane-waves per node :      4578     4506

 maximum number of plane-waves:      4578
 maximum index in each direction: 
   IXMAX=    7   IYMAX=    7   IZMAX=   21
   IXMIN=   -7   IYMIN=   -7   IZMIN=  -22


 serial   3D FFT for wavefunctions
 parallel 3D FFT for charge:
    minimum data exchange during FFTs selected (reduces bandwidth)


 total amount of memory used by VASP MPI-rank0   202939. kBytes
=======================================================================

   base      :      30000. kBytes
   nonl-proj :     112361. kBytes
   fftplans  :        955. kBytes
   grid      :       7297. kBytes
   one-center:        373. kBytes
   wavefun   :      51953. kBytes
 
     INWAV:  cpu time      0.0000: real time      0.0000
 Broyden mixing: mesh for mixing (old mesh)
   NGX = 15   NGY = 15   NGZ = 43
  (NGX  = 56   NGY  = 56   NGZ  =180)
  gives a total of   9675 points

 initial charge density was supplied:
 charge density of overlapping atoms calculated
 number of electron     156.0000000 magnetization       8.6850000
 keeping initial charge density in first step


--------------------------------------------------------------------------------------------------------


 Maximum index for augmentation-charges         1044 (set IRDMAX)


--------------------------------------------------------------------------------------------------------


 First call to EWALD:  gamma=   0.321
 Maximum number of real-space cells 4x 4x 2
 Maximum number of reciprocal cells 2x 2x 5

    FEWALD:  cpu time      0.0023: real time      0.0023


--------------------------------------- Ionic step        1  -------------------------------------------




--------------------------------------- Iteration      1(   1)  ---------------------------------------


    POTLOK:  cpu time      0.0300: real time      0.0420
    SETDIJ:  cpu time      0.0092: real time      0.0094
     EDDAV:  cpu time      6.3108: real time      6.3563
 BZINTS: Fermi energy:   22.111894;  156.000000 electrons
         Band energy: 0.384406E+03;  BLOECHL correction:   -0.053727
       DOS:  cpu time      0.1262: real time      0.1280
    --------------------------------------------
      LOOP:  cpu time      6.4762: real time      6.5358

 eigenvalue-minimisations  : 43008
 total energy-change (2. order) : 0.1772825E+04  (-0.8546836E+04)
 number of electron     156.0000000 magnetization       8.6850000
 augmentation part      156.0000000 magnetization       8.6850000

 Free energy of the ion-electron system (eV)
  ---------------------------------------------------
  alpha Z        PSCENC =      1007.04218677
  Ewald energy   TEWEN  =    -17602.60135017
  -Hartree energ DENC   =     -6250.52076190
  -exchange      EXHF   =         0.00000000
  -V(xc)+E(xc)   XCENC  =       654.27380376
  PAW double counting   =     20093.47104981   -20817.34882783
  entropy T*S    EENTRO =         0.00000000
  eigenvalues    EBANDS =       384.40562887
  atomic energy  EATOM  =     24304.10294433
  Solvation  Ediel_sol  =         0.00000000
  ---------------------------------------------------
  free energy    TOTEN  =      1772.82467364 eV

  energy without entropy =     1772.82467364  energy(sigma->0) =     1772.82467364


--------------------------------------------------------------------------------------------------------




--------------------------------------- Iteration      1(   2)  ---------------------------------------


     EDDAV:  cpu time      6.2469: real time      6.3041
 BZINTS: Fermi energy:   11.173699;  156.000000 electrons
         Band energy:-0.138232E+04;  BLOECHL correction:   -0.018818
       DOS:  cpu time      0.1260: real time      0.1270
    --------------------------------------------
      LOOP:  cpu time      6.3728: real time      6.4310

 eigenvalue-minimisations  : 43008
 total energy-change (2. order) :-0.1766731E+04  (-0.1678327E+04)
 number of electron     156.0000000 magnetization       8.6850000
 augmentation part      156.0000000 magnetization       8.6850000

 Free energy of the ion-electron system (eV)
  ---------------------------------------------------
  alpha Z        PSCENC =      1007.04218677
  Ewald energy   TEWEN  =    -17602.60135017
  -Hartree energ DENC   =     -6250.52076190
  -exchange      EXHF   =         0.00000000
  -V(xc)+E(xc)   XCENC  =       654.27380376
  PAW double counting   =     20093.47104981   -20817.34882783
  entropy T*S    EENTRO =         0.00000000
  eigenvalues    EBANDS =     -1382.32499621
  atomic energy  EATOM  =     24304.10294433
  Solvation  Ediel_sol  =         0.00000000
  ---------------------------------------------------
  free energy    TOTEN  =         6.09404856 eV

  energy without entropy =        6.09404856  energy(sigma->0) =        6.09404856


--------------------------------------------------------------------------------------------------------




--------------------------------------- Iteration      1(   3)  ---------------------------------------


     EDDAV:  cpu time      7.4911: real time      7.5409
 BZINTS: Fermi energy:   10.597802;  156.000000 electrons
         Band energy:-0.149104E+04;  BLOECHL correction:   -0.018538
       DOS:  cpu time      0.1271: real time      0.1281
    --------------------------------------------
      LOOP:  cpu time      7.6182: real time      7.6690

 eigenvalue-minimisations  : 50624
 total energy-change (2. order) :-0.1087161E+03  (-0.1072893E+03)
 number of electron     156.0000000 magnetization       8.6850000
 augmentation part      156.0000000 magnetization       8.6850000

 Free energy of the ion-electron system (eV)
  ---------------------------------------------------
  alpha Z        PSCENC =      1007.04218677
  Ewald energy   TEWEN  =    -17602.60135017
  -Hartree energ DENC   =     -6250.52076190
  -exchange      EXHF   =         0.00000000
  -V(xc)+E(xc)   XCENC  =       654.27380376
  PAW double counting   =     20093.47104981   -20817.34882783
  entropy T*S    EENTRO =         0.00000000
  eigenvalues    EBANDS =     -1491.04113651
  atomic energy  EATOM  =     24304.10294433
  Solvation  Ediel_sol  =         0.00000000
  ---------------------------------------------------
  free energy    TOTEN  =      -102.62209173 eV

  energy without entropy =     -102.62209173  energy(sigma->0) =     -102.62209173


--------------------------------------------------------------------------------------------------------




--------------------------------------- Iteration      1(   4)  ---------------------------------------


     EDDAV:  cpu time      6.8578: real time      6.9040
 BZINTS: Fermi energy:   10.592679;  156.000000 electrons
         Band energy:-0.149271E+04;  BLOECHL correction:   -0.018544
       DOS:  cpu time      0.1275: real time      0.1285
    --------------------------------------------
      LOOP:  cpu time      6.9853: real time      7.0325

 eigenvalue-minimisations  : 45920
 total energy-change (2. order) :-0.1664638E+01  (-0.1664293E+01)
 number of electron     156.0000000 magnetization       8.6850000
 augmentation part      156.0000000 magnetization       8.6850000

 Free energy of the ion-electron system (eV)
  ---------------------------------------------------
  alpha Z        PSCENC =      1007.04218677
  Ewald energy   TEWEN  =    -17602.60135017
  -Hartree energ DENC   =     -6250.52076190
  -exchange      EXHF   =         0.00000000
  -V(xc)+E(xc)   XCENC  =       654.27380376
  PAW double counting   =     20093.47104981   -20817.34882783
  entropy T*S    EENTRO =         0.00000000
  eigenvalues    EBANDS =     -1492.70577451
  atomic energy  EATOM  =     24304.10294433
  Solvation  Ediel_sol  =         0.00000000
  ---------------------------------------------------
  free energy    TOTEN  =      -104.28672974 eV

  energy without entropy =     -104.28672974  energy(sigma->0) =     -104.28672974


--------------------------------------------------------------------------------------------------------




--------------------------------------- Iteration      1(   5)  ---------------------------------------


     EDDAV:  cpu time      7.8084: real time      7.8737
 BZINTS: Fermi energy:   10.592632;  156.000000 electrons
         Band energy:-0.149274E+04;  BLOECHL correction:   -0.018544
       DOS:  cpu time      0.1273: real time      0.1283
    CHARGE:  cpu time      0.2465: real time      0.2482
    MIXING:  cpu time      0.0071: real time      0.0072
    --------------------------------------------
      LOOP:  cpu time      8.1893: real time      8.2574

 eigenvalue-minimisations  : 52768
 total energy-change (2. order) :-0.3503031E-01  (-0.3502930E-01)
 number of electron     155.9999891 magnetization       8.3908196
 augmentation part       79.2863119 magnetization       6.1194481

 Broyden mixing:
  rms(total) = 0.35462E+01    rms(broyden)= 0.35459E+01
  rms(prec ) = 0.41147E+01
  weight for this iteration     100.00

 Free energy of the ion-electron system (eV)
  ---------------------------------------------------
  alpha Z        PSCENC =      1007.04218677
  Ewald energy   TEWEN  =    -17602.60135017
  -Hartree energ DENC   =     -6250.52076190
  -exchange      EXHF   =         0.00000000
  -V(xc)+E(xc)   XCENC  =       654.27380376
  PAW double counting   =     20093.47104981   -20817.34882783
  entropy T*S    EENTRO =         0.00000000
  eigenvalues    EBANDS =     -1492.74080482
  atomic energy  EATOM  =     24304.10294433
  Solvation  Ediel_sol  =         0.00000000
  ---------------------------------------------------
  free energy    TOTEN  =      -104.32176004 eV

  energy without entropy =     -104.32176004  energy(sigma->0) =     -104.32176004


--------------------------------------------------------------------------------------------------------




--------------------------------------- Iteration      1(   6)  ---------------------------------------


    POTLOK:  cpu time      0.0453: real time      0.0462
    SETDIJ:  cpu time      0.0070: real time      0.0071
     EDDAV:  cpu time      7.6968: real time      7.7455
 BZINTS: Fermi energy:    7.900250;  156.000000 electrons
         Band energy:-0.195098E+04;  BLOECHL correction:   -0.017995
       DOS:  cpu time      0.1327: real time      0.1336
    CHARGE:  cpu time      0.1555: real time      0.1563
    MIXING:  cpu time      0.0034: real time      0.0034
    --------------------------------------------
      LOOP:  cpu time      8.0407: real time      8.0922

 eigenvalue-minimisations  : 51776
 total energy-change (2. order) :-0.1179961E+02  (-0.1837370E+02)
 number of electron     155.9999879 magnetization       8.3639105
 augmentation part       89.4689599 magnetization       6.0709121

 Broyden mixing:
  rms(total) = 0.75606E+01    rms(broyden)= 0.75605E+01
  rms(prec ) = 0.11260E+02
  weight for this iteration     100.00

 eigenvalues of (default mixing * dielectric matrix)
  average eigenvalue GAMMA=   0.1814
  0.1814

 Free energy of the ion-electron system (eV)
  ---------------------------------------------------
  alpha Z        PSCENC =      1007.04218677
  Ewald energy   TEWEN  =    -17602.60135017
  -Hartree energ DENC   =     -5812.84957465
  -exchange      EXHF   =         0.00000000
  -V(xc)+E(xc)   XCENC  =       636.63340875
  PAW double counting   =     20168.39061253   -20865.86205914
  entropy T*S    EENTRO =         0.00000000
  eigenvalues    EBANDS =     -1950.97753782
  atomic energy  EATOM  =     24304.10294433
  Solvation  Ediel_sol  =         0.00000000
  ---------------------------------------------------
  free energy    TOTEN  =      -116.12136940 eV

  energy without entropy =     -116.12136940  energy(sigma->0) =     -116.12136940


--------------------------------------------------------------------------------------------------------




--------------------------------------- Iteration      1(   7)  ---------------------------------------


    POTLOK:  cpu time      0.0314: real time      0.0460
    SETDIJ:  cpu time      0.0068: real time      0.0069
     EDDAV:  cpu time      7.7896: real time      7.8408
 BZINTS: Fermi energy:    8.516537;  156.000000 electrons
         Band energy:-0.185079E+04;  BLOECHL correction:   -0.015814
       DOS:  cpu time      0.1330: real time      0.1340
    CHARGE:  cpu time      0.1548: real time      0.1556
    MIXING:  cpu time      0.0019: real time      0.0023
    --------------------------------------------
      LOOP:  cpu time      8.1175: real time      8.1855

 eigenvalue-minimisations  : 52576
 total energy-change (2. order) : 0.8506928E+01  (-0.4182717E+02)
 number of electron     155.9999880 magnetization       7.7674296
 augmentation part       86.5114762 magnetization       7.6976416

 Broyden mixing:
  rms(total) = 0.60359E+01    rms(broyden)= 0.60357E+01
  rms(prec ) = 0.94227E+01
  weight for this iteration     100.00

 eigenvalues of (default mixing * dielectric matrix)
  average eigenvalue GAMMA=   0.2363
  0.3612  0.1113

 Free energy of the ion-electron system (eV)
  ---------------------------------------------------
  alpha Z        PSCENC =      1007.04218677
  Ewald energy   TEWEN  =    -17602.60135017
  -Hartree energ DENC   =     -5891.09434073
  -exchange      EXHF   =         0.00000000
  -V(xc)+E(xc)   XCENC  =       638.43682689
  PAW double counting   =     20448.48233966   -21161.19118634
  entropy T*S    EENTRO =         0.00000000
  eigenvalues    EBANDS =     -1850.79186177
  atomic energy  EATOM  =     24304.10294433
  Solvation  Ediel_sol  =         0.00000000
  ---------------------------------------------------
  free energy    TOTEN  =      -107.61444137 eV

  energy without entropy =     -107.61444137  energy(sigma->0) =     -107.61444137


--------------------------------------------------------------------------------------------------------




--------------------------------------- Iteration      1(   8)  ---------------------------------------


    POTLOK:  cpu time      0.0316: real time      0.0465
    SETDIJ:  cpu time      0.0074: real time      0.0074
     EDDAV:  cpu time      7.6676: real time      7.7188
 BZINTS: Fermi energy:    9.021956;  156.000000 electrons
         Band energy:-0.173733E+04;  BLOECHL correction:   -0.013447
       DOS:  cpu time      0.1343: real time      0.1354
    CHARGE:  cpu time      0.1541: real time      0.1553
    MIXING:  cpu time      0.0019: real time      0.0019
    --------------------------------------------
      LOOP:  cpu time      7.9969: real time      8.0653

 eigenvalue-minimisations  : 51392
 total energy-change (2. order) : 0.1277687E+02  (-0.1054988E+02)
 number of electron     155.9999883 magnetization       7.8519687
 augmentation part       84.0913467 magnetization       4.5315413

 Broyden mixing:
  rms(total) = 0.25780E+01    rms(broyden)= 0.25777E+01
  rms(prec ) = 0.36477E+01
  weight for this iteration     100.00

 eigenvalues of (default mixing * dielectric matrix)
  average eigenvalue GAMMA=   0.3933
  0.7802  0.2981  0.1016

 Free energy of the ion-electron system (eV)
  ---------------------------------------------------
  alpha Z        PSCENC =      1007.04218677
  Ewald energy   TEWEN  =    -17602.60135017
  -Hartree energ DENC   =     -5974.52270872
  -exchange      EXHF   =         0.00000000
  -V(xc)+E(xc)   XCENC  =       640.73500937
  PAW double counting   =     20844.44443201   -21576.70908834
  entropy T*S    EENTRO =         0.00000000
  eigenvalues    EBANDS =     -1737.32899676
  atomic energy  EATOM  =     24304.10294433
  Solvation  Ediel_sol  =         0.00000000
  ---------------------------------------------------
  free energy    TOTEN  =       -94.83757152 eV

  energy without entropy =      -94.83757152  energy(sigma->0) =      -94.83757152


--------------------------------------------------------------------------------------------------------




--------------------------------------- Iteration      1(   9)  ---------------------------------------


    POTLOK:  cpu time      0.0454: real time      0.0463
    SETDIJ:  cpu time      0.0081: real time      0.0082
     EDDAV:  cpu time      7.6671: real time      7.7163
 BZINTS: Fermi energy:    9.028035;  156.000000 electrons
         Band energy:-0.175847E+04;  BLOECHL correction:   -0.014097
       DOS:  cpu time      0.1334: real time      0.1346
    CHARGE:  cpu time      0.1557: real time      0.1568
    MIXING:  cpu time      0.0019: real time      0.0019
    --------------------------------------------
      LOOP:  cpu time      8.0116: real time      8.0640

 eigenvalue-minimisations  : 52064
 total energy-change (2. order) :-0.8905041E+01  (-0.1174671E+02)
 number of electron     155.9999889 magnetization       7.6506174
 augmentation part       84.5563431 magnetization       7.2379213

 Broyden mixing:
  rms(total) = 0.58542E+01    rms(broyden)= 0.58541E+01
  rms(prec ) = 0.87431E+01
  weight for this iteration     100.00

 eigenvalues of (default mixing * dielectric matrix)
  average eigenvalue GAMMA=   0.3987
  1.0545  0.3344  0.0935  0.1124

 Free energy of the ion-electron system (eV)
  ---------------------------------------------------
  alpha Z        PSCENC =      1007.04218677
  Ewald energy   TEWEN  =    -17602.60135017
  -Hartree energ DENC   =     -5955.60348931
  -exchange      EXHF   =         0.00000000
  -V(xc)+E(xc)   XCENC  =       640.56393690
  PAW double counting   =     21054.50891104   -21793.28617193
  entropy T*S    EENTRO =         0.00000000
  eigenvalues    EBANDS =     -1758.46958052
  atomic energy  EATOM  =     24304.10294433
  Solvation  Ediel_sol  =         0.00000000
  ---------------------------------------------------
  free energy    TOTEN  =      -103.74261289 eV

  energy without entropy =     -103.74261289  energy(sigma->0) =     -103.74261289


--------------------------------------------------------------------------------------------------------




--------------------------------------- Iteration      1(  10)  ---------------------------------------


    POTLOK:  cpu time      0.0316: real time      0.0464
    SETDIJ:  cpu time      0.0075: real time      0.0075
     EDDAV:  cpu time      7.6833: real time      7.7325
 BZINTS: Fermi energy:    8.647830;  156.000000 electrons
         Band energy:-0.177254E+04;  BLOECHL correction:   -0.011643
       DOS:  cpu time      0.1326: real time      0.1339
    CHARGE:  cpu time      0.1565: real time      0.1574
    MIXING:  cpu time      0.0019: real time      0.0019
    --------------------------------------------
      LOOP:  cpu time      8.0133: real time      8.0797

 eigenvalue-minimisations  : 51904
 total energy-change (2. order) : 0.1049709E+02  (-0.1261966E+02)
 number of electron     155.9999884 magnetization       7.6510436
 augmentation part       85.0779285 magnetization       5.5435440

 Broyden mixing:
  rms(total) = 0.22155E+01    rms(broyden)= 0.22153E+01
  rms(prec ) = 0.32598E+01
  weight for this iteration     100.00

 eigenvalues of (default mixing * dielectric matrix)
  average eigenvalue GAMMA=   0.3465
  1.0512  0.3076  0.1895  0.0961  0.0881

 Free energy of the ion-electron system (eV)
  ---------------------------------------------------
  alpha Z        PSCENC =      1007.04218677
  Ewald energy   TEWEN  =    -17602.60135017
  -Hartree energ DENC   =     -5926.29892872
  -exchange      EXHF   =         0.00000000
  -V(xc)+E(xc)   XCENC  =       639.40842817
  PAW double counting   =     21201.57116415   -21943.93381838
  entropy T*S    EENTRO =         0.00000000
  eigenvalues    EBANDS =     -1772.53615331
  atomic energy  EATOM  =     24304.10294433
  Solvation  Ediel_sol  =         0.00000000
  ---------------------------------------------------
  free energy    TOTEN  =       -93.24552716 eV

  energy without entropy =      -93.24552716  energy(sigma->0) =      -93.24552716


--------------------------------------------------------------------------------------------------------




--------------------------------------- Iteration      1(  11)  ---------------------------------------


    POTLOK:  cpu time      0.0320: real time      0.0465
    SETDIJ:  cpu time      0.0078: real time      0.0079
     EDDAV:  cpu time      7.5896: real time      7.6387
 BZINTS: Fermi energy:    8.717632;  156.000000 electrons
         Band energy:-0.177130E+04;  BLOECHL correction:   -0.019644
       DOS:  cpu time      0.1324: real time      0.1335
    CHARGE:  cpu time      0.1538: real time      0.1546
    MIXING:  cpu time      0.0021: real time      0.0021
    --------------------------------------------
      LOOP:  cpu time      7.9177: real time      7.9833

 eigenvalue-minimisations  : 51168
 total energy-change (2. order) : 0.9161366E+00  (-0.1957020E+01)
 number of electron     155.9999885 magnetization       7.7205692
 augmentation part       84.9091167 magnetization       5.5914649

 Broyden mixing:
  rms(total) = 0.13897E+01    rms(broyden)= 0.13896E+01
  rms(prec ) = 0.16891E+01
  weight for this iteration     100.00

 eigenvalues of (default mixing * dielectric matrix)
  average eigenvalue GAMMA=   0.3611
  1.0912  0.3826  0.3826  0.0941  0.1082  0.1082

 Free energy of the ion-electron system (eV)
  ---------------------------------------------------
  alpha Z        PSCENC =      1007.04218677
  Ewald energy   TEWEN  =    -17602.60135017
  -Hartree energ DENC   =     -5925.39274074
  -exchange      EXHF   =         0.00000000
  -V(xc)+E(xc)   XCENC  =       639.55621998
  PAW double counting   =     21240.60384655   -21984.33962554
  entropy T*S    EENTRO =         0.00000000
  eigenvalues    EBANDS =     -1771.30087171
  atomic energy  EATOM  =     24304.10294433
  Solvation  Ediel_sol  =         0.00000000
  ---------------------------------------------------
  free energy    TOTEN  =       -92.32939053 eV

  energy without entropy =      -92.32939053  energy(sigma->0) =      -92.32939053


--------------------------------------------------------------------------------------------------------




--------------------------------------- Iteration      1(  12)  ---------------------------------------


    POTLOK:  cpu time      0.0457: real time      0.0465
    SETDIJ:  cpu time      0.0076: real time      0.0076
     EDDAV:  cpu time      7.6222: real time      7.6709
 BZINTS: Fermi energy:    8.773513;  156.000000 electrons
         Band energy:-0.176803E+04;  BLOECHL correction:   -0.019731
       DOS:  cpu time      0.1328: real time      0.1343
    CHARGE:  cpu time      0.1556: real time      0.1564
    MIXING:  cpu time      0.0019: real time      0.0019
    --------------------------------------------
      LOOP:  cpu time      7.9657: real time      8.0176

 eigenvalue-minimisations  : 51648
 total energy-change (2. order) :-0.1674435E+00  (-0.4180043E+00)
 number of electron     155.9999885 magnetization       7.7864612
 augmentation part       84.8025326 magnetization       5.6044644

 Broyden mixing:
  rms(total) = 0.87450E+00    rms(broyden)= 0.87447E+00
  rms(prec ) = 0.10731E+01
  weight for this iteration     100.00

 eigenvalues of (default mixing * dielectric matrix)
  average eigenvalue GAMMA=   0.4259
  1.1265  0.6200  0.6200  0.3111  0.1168  0.1008  0.0858

 Free energy of the ion-electron system (eV)
  ---------------------------------------------------
  alpha Z        PSCENC =      1007.04218677
  Ewald energy   TEWEN  =    -17602.60135017
  -Hartree energ DENC   =     -5926.02413743
  -exchange      EXHF   =         0.00000000
  -V(xc)+E(xc)   XCENC  =       640.30817277
  PAW double counting   =     21333.33989810   -22080.63839585
  entropy T*S    EENTRO =         0.00000000
  eigenvalues    EBANDS =     -1768.02615252
  atomic energy  EATOM  =     24304.10294433
  Solvation  Ediel_sol  =         0.00000000
  ---------------------------------------------------
  free energy    TOTEN  =       -92.49683401 eV

  energy without entropy =      -92.49683401  energy(sigma->0) =      -92.49683401


--------------------------------------------------------------------------------------------------------




--------------------------------------- Iteration      1(  13)  ---------------------------------------


    POTLOK:  cpu time      0.0453: real time      0.0461
    SETDIJ:  cpu time      0.0077: real time      0.0077
     EDDAV:  cpu time      7.6999: real time      7.7505
 BZINTS: Fermi energy:    8.769104;  156.000000 electrons
         Band energy:-0.177130E+04;  BLOECHL correction:   -0.020097
       DOS:  cpu time      0.1335: real time      0.1345
    CHARGE:  cpu time      0.1548: real time      0.1557
    MIXING:  cpu time      0.0020: real time      0.0020
    --------------------------------------------
      LOOP:  cpu time      8.0433: real time      8.0966

 eigenvalue-minimisations  : 51872
 total energy-change (2. order) :-0.3268749E+00  (-0.3110097E+00)
 number of electron     155.9999885 magnetization       8.0258875
 augmentation part       84.8720080 magnetization       5.6518809

 Broyden mixing:
  rms(total) = 0.10190E+01    rms(broyden)= 0.10190E+01
  rms(prec ) = 0.12695E+01
  weight for this iteration     100.00

 eigenvalues of (default mixing * dielectric matrix)
  average eigenvalue GAMMA=   0.4497
  1.1372  0.8506  0.8506  0.3144  0.1485  0.0874  0.1046  0.1046

 Free energy of the ion-electron system (eV)
  ---------------------------------------------------
  alpha Z        PSCENC =      1007.04218677
  Ewald energy   TEWEN  =    -17602.60135017
  -Hartree energ DENC   =     -5922.02513872
  -exchange      EXHF   =         0.00000000
  -V(xc)+E(xc)   XCENC  =       640.56948871
  PAW double counting   =     21378.52255411   -22127.13867121
  entropy T*S    EENTRO =         0.00000000
  eigenvalues    EBANDS =     -1771.29572273
  atomic energy  EATOM  =     24304.10294433
  Solvation  Ediel_sol  =         0.00000000
  ---------------------------------------------------
  free energy    TOTEN  =       -92.82370892 eV

  energy without entropy =      -92.82370892  energy(sigma->0) =      -92.82370892


--------------------------------------------------------------------------------------------------------




--------------------------------------- Iteration      1(  14)  ---------------------------------------


    POTLOK:  cpu time      0.0326: real time      0.0461
    SETDIJ:  cpu time      0.0079: real time      0.0079
     EDDAV:  cpu time      7.5226: real time      7.5719
 BZINTS: Fermi energy:    8.787488;  156.000000 electrons
         Band energy:-0.177638E+04;  BLOECHL correction:   -0.020913
       DOS:  cpu time      0.1330: real time      0.1344
[...]
    113      22.2314      0.00000
    114      22.6823      0.00000
    115      22.7349      0.00000
    116      22.9136      0.00000
    117      23.0833      0.00000
    118      23.7499      0.00000
    119      23.9064      0.00000
    120      25.8603      0.00000
    121      25.8891      0.00000
    122      25.9418      0.00000
    123      26.3081      0.00000
    124      26.6367      0.00000
    125      26.9766      0.00000
    126      27.1678      0.00000
    127      27.4262      0.00000
    128      27.8146      0.00000


--------------------------------------------------------------------------------------------------------


 soft charge-density along one line, spin component           1
         0         1         2         3         4         5         6         7         8         9
 total charge-density along one line
 
 soft charge-density along one line, spin component           2
         0         1         2         3         4         5         6         7         8         9
 total charge-density along one line
 
 pseudopotential strength for first ion, spin component:           1
-43.661  -0.000   0.000   7.055   0.000  -0.000  -0.000   0.005
 -0.000 -43.695   0.000   0.000   7.069  -0.000   0.000   0.000
  0.000   0.000 -43.617  -0.000  -0.000   7.036   0.000   0.000
  7.055   0.000  -0.000   5.817   0.000  -0.000  -0.000  -0.002
  0.000   7.069  -0.000   0.000   5.813  -0.000  -0.000  -0.000
 -0.000  -0.000   7.036  -0.000  -0.000   5.822  -0.000  -0.000
 -0.000   0.000   0.000  -0.000  -0.000  -0.000  -1.038   0.000
  0.005   0.000   0.000  -0.002  -0.000  -0.000   0.000  -1.055
 -0.000   0.008   0.000   0.000  -0.002  -0.000  -0.000  -0.000
  0.000  -0.000  -0.001  -0.000  -0.000   0.003  -0.000   0.000
 -0.000  -0.003   0.000   0.000   0.003  -0.000   0.000   0.000
 -0.000   0.000   0.000   0.000  -0.000  -0.000  -1.569   0.000
  0.005   0.000   0.000  -0.002  -0.000  -0.000   0.000  -1.585
 -0.000   0.008   0.000   0.000  -0.002  -0.000  -0.000  -0.000
  0.000  -0.000  -0.000  -0.000   0.000   0.003  -0.000   0.000
 -0.000  -0.003  -0.000   0.000   0.003   0.000   0.000   0.000
 -0.000   0.000   0.000  -0.000   0.002   0.000  -0.000   0.000
 -0.000   0.002   0.000  -0.000   0.005   0.000  -0.000   0.000
 pseudopotential strength for first ion, spin component:           2
-46.055  -0.000   0.000   8.060   0.000  -0.000  -0.000   0.007
 -0.000 -46.114   0.000   0.000   8.084  -0.000   0.000   0.000
  0.000   0.000 -45.910  -0.000  -0.000   8.001   0.000   0.000
  8.060   0.000  -0.000   5.529   0.000  -0.000   0.000  -0.004
  0.000   8.084  -0.000   0.000   5.524  -0.000  -0.000  -0.000
 -0.000  -0.000   8.001  -0.000  -0.000   5.542  -0.000  -0.000
 -0.000   0.000   0.000   0.000  -0.000  -0.000  -2.888   0.000
  0.007   0.000   0.000  -0.004  -0.000  -0.000   0.000  -3.060
 -0.000   0.017   0.000   0.000  -0.007  -0.000  -0.000  -0.000
  0.000  -0.000   0.029  -0.000  -0.000  -0.013  -0.000   0.000
 -0.000   0.011  -0.000   0.000  -0.004  -0.000   0.000   0.000
 -0.000   0.000   0.000   0.000  -0.000  -0.000  -3.389   0.000
  0.007   0.000   0.000  -0.004  -0.000  -0.000   0.000  -3.558
 -0.000   0.016   0.000   0.000  -0.007  -0.000  -0.000  -0.000
  0.000  -0.000   0.028  -0.000   0.000  -0.012  -0.000   0.000
 -0.000   0.011  -0.000   0.000  -0.004  -0.000   0.000   0.000
 -0.000  -0.006   0.000  -0.000   0.004   0.000  -0.000   0.000
 -0.000  -0.015   0.000  -0.000   0.010   0.000  -0.000   0.000
 total augmentation occupancy for first ion, spin component:           1
  1.992   0.000   0.000  -0.029   0.000   0.000   0.000  -0.008   0.000   0.000   0.000   0.000   0.008   0.000   0.000   0.000
  0.000   1.992   0.000   0.000  -0.029  -0.000  -0.000   0.000  -0.005   0.000   0.003   0.000   0.000   0.005   0.000  -0.003
  0.000   0.000   1.992   0.000  -0.000  -0.028  -0.000  -0.000   0.000  -0.001   0.000  -0.000   0.000   0.000   0.001  -0.000
 -0.029   0.000   0.000   0.162  -0.000   0.000   0.000  -0.022   0.000  -0.000   0.000   0.000   0.030   0.000   0.000   0.000
  0.000  -0.029  -0.000  -0.000   0.161   0.000   0.000   0.000  -0.013   0.000   0.021  -0.000   0.000   0.005   0.000  -0.035
  0.000  -0.000  -0.028   0.000   0.000   0.142  -0.000   0.000   0.000   0.019  -0.000   0.000   0.000   0.000  -0.048  -0.000
  0.000  -0.000  -0.000   0.000   0.000  -0.000   3.010  -0.000   0.000   0.000  -0.000  -1.537   0.000   0.000   0.000  -0.000
 -0.008   0.000  -0.000  -0.022   0.000   0.000  -0.000   2.976   0.000   0.000   0.000   0.000  -1.826   0.000   0.000   0.000
  0.000  -0.005   0.000   0.000  -0.013   0.000   0.000   0.000   3.412   0.000   0.222   0.000   0.000  -1.855   0.000  -0.137
  0.000   0.000  -0.001  -0.000   0.000   0.019   0.000   0.000   0.000   2.755   0.000   0.000   0.000   0.000  -1.375   0.000
  0.000   0.003   0.000   0.000   0.021  -0.000  -0.000   0.000   0.222   0.000   3.010   0.000   0.000  -0.135  -0.000  -1.603
  0.000   0.000  -0.000   0.000  -0.000   0.000  -1.537   0.000   0.000   0.000   0.000   1.516   0.000   0.000   0.000   0.000
  0.008   0.000   0.000   0.030   0.000   0.000   0.000  -1.826   0.000   0.000   0.000   0.000   1.930   0.000   0.000   0.000
  0.000   0.005   0.000   0.000   0.005   0.000   0.000   0.000  -1.855   0.000  -0.135   0.000   0.000   1.592   0.000   0.050
  0.000   0.000   0.001   0.000   0.000  -0.048   0.000   0.000   0.000  -1.375  -0.000   0.000   0.000   0.000   1.367   0.000
  0.000  -0.003  -0.000   0.000  -0.035  -0.000  -0.000   0.000  -0.137   0.000  -1.603   0.000   0.000   0.050   0.000   1.456
  0.000  -0.000  -0.000  -0.000  -0.002  -0.000   0.000   0.000  -0.121   0.000   0.175   0.000   0.000   0.071  -0.000  -0.124
  0.000   0.001   0.000   0.000   0.000   0.000   0.000   0.000   0.011  -0.000  -0.011   0.000   0.000  -0.005   0.000   0.007
 total augmentation occupancy for first ion, spin component:           2
  0.002   0.000   0.000   0.009   0.000   0.000   0.000   0.001   0.000   0.000   0.000   0.000  -0.001   0.000   0.000   0.000
  0.000   0.002  -0.000   0.000   0.009  -0.000   0.000   0.000   0.004   0.000   0.005   0.000   0.000  -0.004   0.000  -0.005
  0.000  -0.000   0.002   0.000  -0.000   0.009   0.000  -0.000   0.000   0.010  -0.000   0.000  -0.000   0.000  -0.011  -0.000
  0.009   0.000   0.000  -0.007   0.000   0.000  -0.000   0.023   0.000  -0.000   0.000   0.000  -0.017   0.000   0.000  -0.000
  0.000   0.009  -0.000   0.000  -0.003   0.000   0.000  -0.000   0.000   0.000  -0.033  -0.000   0.000  -0.011   0.000   0.010
  0.000  -0.000   0.009   0.000   0.000  -0.001  -0.000   0.000   0.000  -0.061   0.000  -0.000  -0.000   0.000   0.008  -0.000
  0.000   0.000   0.000  -0.000   0.000  -0.000  -2.479   0.000   0.000   0.000  -0.000   1.159  -0.000   0.000   0.000   0.000
  0.001   0.000  -0.000   0.023  -0.000   0.000   0.000  -2.322   0.000   0.000   0.000   0.000   0.871   0.000   0.000  -0.000
  0.000   0.004   0.000   0.000   0.000   0.000   0.000   0.000  -2.892   0.000  -0.117   0.000   0.000   1.306   0.000   0.092
  0.000   0.000   0.010  -0.000   0.000  -0.061   0.000   0.000   0.000  -2.192  -0.000   0.000  -0.000   0.000   0.865   0.000
  0.000   0.005  -0.000   0.000  -0.033   0.000  -0.000   0.000  -0.117  -0.000  -2.542  -0.000   0.000   0.093   0.000   0.997
  0.000   0.000   0.000   0.000  -0.000  -0.000   1.159   0.000   0.000   0.000  -0.000  -0.371  -0.000   0.000   0.000  -0.000
 -0.001   0.000  -0.000  -0.017   0.000  -0.000  -0.000   0.871   0.000  -0.000   0.000  -0.000  -0.087   0.000   0.000  -0.000
  0.000  -0.004   0.000   0.000  -0.011   0.000   0.000   0.000   1.306   0.000   0.093   0.000   0.000  -0.486   0.000  -0.095
  0.000   0.000  -0.011   0.000   0.000   0.008   0.000   0.000   0.000   0.865   0.000   0.000   0.000   0.000  -0.134   0.000
  0.000  -0.005  -0.000  -0.000   0.010  -0.000   0.000  -0.000   0.092   0.000   0.997  -0.000  -0.000  -0.095   0.000  -0.210
  0.000  -0.001   0.000   0.000  -0.018   0.000   0.000   0.000   0.035  -0.000  -0.057   0.000   0.000  -0.042   0.000   0.048
  0.000   0.000  -0.000   0.000  -0.000  -0.000   0.000   0.000  -0.008  -0.000   0.006  -0.000   0.000   0.002  -0.000  -0.001


------------------------ aborting loop because EDIFF is reached ----------------------------------------





 total charge

# of ion       s       p       d       tot
------------------------------------------
    1        0.332   6.286   5.970  12.588
    2        0.330   6.285   5.995  12.610
    3        0.326   6.279   5.967  12.573
    4        0.334   6.290   5.957  12.580
    5        0.333   6.287   5.973  12.593
    6        0.328   6.287   5.971  12.587
    7        0.332   6.286   5.970  12.588
    8        0.330   6.285   5.995  12.610
    9        0.326   6.279   5.967  12.573
   10        0.728   0.597   8.000   9.326
   11        0.733   0.598   8.004   9.335
   12        0.721   0.623   7.998   9.342
--------------------------------------------------
tot          5.154  58.382  77.767 141.303



 magnetization (x)

# of ion       s       p       d       tot
------------------------------------------
    1       -0.016  -0.005  -2.792  -2.814
    2        0.003  -0.013   2.786   2.776
    3        0.012   0.001   2.785   2.798
    4       -0.018  -0.020  -2.793  -2.831
    5        0.015   0.019   2.737   2.771
    6        0.004  -0.015   2.901   2.890
    7       -0.016  -0.005  -2.792  -2.814
    8        0.003  -0.013   2.786   2.776
    9        0.012   0.001   2.785   2.798
   10        0.007   0.015  -0.075  -0.053
   11       -0.007  -0.018   0.055   0.029
   12       -0.041  -0.098   0.412   0.273
--------------------------------------------------
tot         -0.043  -0.152   8.796   8.601
 
    CHARGE:  cpu time      0.1534: real time      0.1545
    FORLOC:  cpu time      0.0012: real time      0.0013
    FORNL :  cpu time      0.7857: real time      0.7899
    STRESS:  cpu time      4.7982: real time      4.8352
    FORCOR:  cpu time      0.0215: real time      0.0216
    FORHAR:  cpu time      0.0027: real time      0.0028
    MIXING:  cpu time      0.0065: real time      0.0065
    OFIELD:  cpu time      0.0015: real time      0.0015

  FORCE on cell =-STRESS in cart. coord.  units (eV):
  Direction    XX          YY          ZZ          XY          YZ          ZX
  --------------------------------------------------------------------------------------
  Alpha Z  1007.04219  1007.04219  1007.04219
  Ewald   -5851.65345 -5851.65345 -5899.31906     0.00000     0.00000     0.00000
  Hartree  1980.56094  1980.56094  1936.96088    -0.00000    -0.00000    -0.00000
  E(xc)    -941.61125  -941.61125  -941.56005     0.00000    -0.00000     0.00000
  Local     895.16670   895.16670   994.44483    -0.00000    -0.00000    -0.00000
  n-local  -226.57824  -241.58243  -235.40815    12.88950     0.07877     0.09492
  augment  1442.68896  1442.68896  1438.34393     0.00000     0.00000    -0.00000
  Kinetic  1695.49139  1681.70612  1686.28665     2.15839     0.06432    -0.11531
  Fock        0.00000     0.00000     0.00000     0.00000     0.00000     0.00000
  -------------------------------------------------------------------------------------
  Total     -13.28750   -13.28750   -13.20878     0.00000    -0.00000     0.00000
  in kB    -125.96998  -125.96998  -125.22376     0.00000    -0.00000     0.00000
  external pressure =     -125.72 kB  Pullay stress =        0.00 kB


 VOLUME and BASIS-vectors are now :
 -----------------------------------------------------------------------------
  energy-cutoff  :      520.00
  volume of cell :      169.00
      direct lattice vectors                 reciprocal lattice vectors
     3.813261043  0.000000000  0.000000000     0.262242734  0.000000000  0.000000000
     0.000000000  3.813261043  0.000000000     0.000000000  0.262242734  0.000000000
     0.000000000  0.000000000 11.622341480     0.000000000  0.000000000  0.086041182

  length of vectors
     3.813261043  3.813261043 11.622341480     0.262242734  0.262242734  0.086041182


 FORCES acting on ions
    electron-ion (+dipol)            ewald-force                    non-local-force                 convergence-correction
 -----------------------------------------------------------------------------------------------
   -.599E-13 0.117E-11 0.321E+01   -.186E-13 0.510E-14 -.414E+01   -.753E-19 0.225E-18 0.917E+00   0.342E-13 -.305E-13 0.919E-02
   -.591E-13 0.232E-12 -.149E+02   -.159E-13 0.337E-13 0.152E+02   0.288E-19 -.561E-18 -.226E+00   0.423E-13 -.296E-13 -.272E-01
   -.604E-13 0.143E-11 -.467E+02   -.812E-14 0.205E-13 0.455E+02   -.549E-18 0.625E-18 0.122E+01   0.630E-13 -.260E-13 0.170E-01
   0.105E-11 -.415E-11 0.919E+02   0.140E-17 -.697E-14 -.890E+02   -.988E-19 0.147E-18 -.294E+01   -.118E-12 -.161E-14 0.339E-01
   0.108E-11 0.719E-11 0.120E+03   0.295E-13 0.102E-13 -.117E+03   -.624E-18 -.134E-17 -.291E+01   -.943E-13 0.321E-13 -.216E-01
   0.113E-11 -.547E-11 -.846E+02   -.407E-13 0.245E-13 0.849E+02   -.730E-19 0.751E-19 -.262E+00   -.206E-12 -.296E-13 -.143E-01
   0.111E-11 0.189E-12 0.321E+01   -.175E-14 -.212E-13 -.414E+01   0.552E-18 0.146E-18 0.917E+00   -.222E-12 0.862E-14 0.919E-02
   0.113E-11 0.179E-12 -.149E+02   0.323E-13 -.966E-14 0.152E+02   -.494E-18 0.538E-19 -.226E+00   -.219E-12 -.248E-13 -.272E-01
   0.112E-11 0.993E-13 -.467E+02   0.457E-14 -.119E-13 0.455E+02   0.114E-17 -.130E-18 0.122E+01   -.241E-12 -.290E-13 0.170E-01
   -.443E-13 0.773E-13 0.167E+02   0.129E-13 -.177E-13 -.172E+02   -.879E-18 -.142E-17 0.501E+00   0.468E-13 -.183E-13 0.244E-01
   -.439E-13 0.331E-13 0.179E+02   -.379E-13 -.818E-14 -.184E+02   0.326E-18 -.124E-17 0.463E+00   0.471E-13 -.250E-13 -.141E-01
   -.470E-13 -.538E-13 -.439E+02   0.966E-13 -.111E-13 0.437E+02   0.323E-18 0.146E-19 0.274E+00   0.586E-13 -.124E-13 -.972E-02
 -----------------------------------------------------------------------------------------------
   0.630E-11 0.925E-12 0.106E+01   0.527E-13 0.727E-14 -.178E-12   -.425E-18 -.340E-17 -.106E+01   -.809E-12 -.186E-12 -.336E-02
 
 
 POSITION                                       TOTAL-FORCE (eV/Angst)
 -----------------------------------------------------------------------------------
      0.00000      1.90663      1.93606         0.000000     -0.000000      0.002069
      0.00000      1.90663      5.80509         0.000000      0.000000     -0.006342
      0.00000      1.90663      9.66618         0.000000      0.000000      0.000021
      1.90663      1.90663      0.09117        -0.000000     -0.000000      0.016363
      1.90663      1.90663      3.99334        -0.000000     -0.000000     -0.011917
      1.90663      1.90663      7.70369        -0.000000      0.000000      0.019945
      1.90663      0.00000      1.93606         0.000000      0.000000      0.002069
      1.90663      0.00000      5.80509         0.000000      0.000000     -0.006342
      1.90663      0.00000      9.66618         0.000000      0.000000      0.000021
      0.00000      0.00000     11.58364         0.000000      0.000000     -0.021511
      0.00000      0.00000      3.81351         0.000000      0.000000     -0.002600
      0.00000      0.00000      7.73405         0.000000      0.000000      0.008225
 -----------------------------------------------------------------------------------
    total drift:                                0.000000      0.000000      0.000296


--------------------------------------------------------------------------------------------------------



  FREE ENERGIE OF THE ION-ELECTRON SYSTEM (eV)
  ---------------------------------------------------
  free  energy   TOTEN  =       -92.71599023 eV

  energy  without entropy=      -92.71599023  energy(sigma->0) =      -92.71599023
 


--------------------------------------------------------------------------------------------------------


    POTLOK:  cpu time      0.0379: real time      0.0390


--------------------------------------------------------------------------------------------------------


     LOOP+:  cpu time    227.2776: real time    229.1039
 -----------------------------------------------------------------------------
|                                                                             |
|           W    W    AA    RRRRR   N    N  II  N    N   GGGG   !!!           |
|           W    W   A  A   R    R  NN   N  II  NN   N  G    G  !!!           |
|           W    W  A    A  R    R  N N  N  II  N N  N  G       !!!           |
|           W WW W  AAAAAA  RRRRR   N  N N  II  N  N N  G  GGG   !            |
|           WW  WW  A    A  R   R   N   NN  II  N   NN  G    G                |
|           W    W  A    A  R    R  N    N  II  N    N   GGGG   !!!           |
|                                                                             |
|     Tetrahedron method does not include variations of the Fermi             |
|     occupations, so forces and stress will be inaccurate. We suggest        |
|     using a different smearing scheme ISMEAR = 1 or 2 for metals in         |
|     relaxations.                                                            |
|                                                                             |
 -----------------------------------------------------------------------------

    4ORBIT:  cpu time      0.0000: real time      0.0000



 total charge

# of ion       s       p       d       tot
------------------------------------------
    1        0.332   6.286   5.970  12.588
    2        0.330   6.285   5.995  12.610
    3        0.326   6.279   5.967  12.573
    4        0.334   6.290   5.957  12.580
    5        0.333   6.287   5.973  12.593
    6        0.328   6.287   5.971  12.587
    7        0.332   6.286   5.970  12.588
    8        0.330   6.285   5.995  12.610
    9        0.326   6.279   5.967  12.573
   10        0.728   0.597   8.000   9.326
   11        0.733   0.598   8.004   9.335
   12        0.721   0.623   7.998   9.342
--------------------------------------------------
tot          5.154  58.382  77.767 141.303



 magnetization (x)

# of ion       s       p       d       tot
------------------------------------------
    1       -0.016  -0.005  -2.792  -2.814
    2        0.003  -0.013   2.786   2.776
    3        0.012   0.001   2.785   2.798
    4       -0.018  -0.020  -2.793  -2.831
    5        0.015   0.019   2.737   2.771
    6        0.004  -0.015   2.901   2.890
    7       -0.016  -0.005  -2.792  -2.814
    8        0.003  -0.013   2.786   2.776
    9        0.012   0.001   2.785   2.798
   10        0.007   0.015  -0.075  -0.053
   11       -0.007  -0.018   0.055   0.029
   12       -0.041  -0.098   0.412   0.273
--------------------------------------------------
tot         -0.043  -0.152   8.796   8.601
 
 BZINTS: Fermi energy:    8.801233;  156.000000 electrons
         Band energy:-0.178599E+04;  BLOECHL correction:   -0.020904

 total amount of memory used by VASP MPI-rank0   202939. kBytes
=======================================================================

   base      :      30000. kBytes
   nonl-proj :     112361. kBytes
   fftplans  :        955. kBytes
   grid      :       7297. kBytes
   one-center:        373. kBytes
   wavefun   :      51953. kBytes
 
  
  
 General timing and accounting informations for this job:
 ========================================================
  
                  Total CPU time used (sec):      246.838
                            User time (sec):      238.711
                          System time (sec):        8.128
                         Elapsed time (sec):      254.975
  
                   Maximum memory used (kb):      924796.
                   Average memory used (kb):          N/A
  
                          Minor page faults:       213403
                          Major page faults:          199
                 Voluntary context switches:         8176
