       N       E                     dE             d eps       ncg     rms          ort
DAV:   1     0.173699861224E+04    0.17370E+04   -0.93467E+04  8064   0.255E+03
DAV:   2     0.782805849825E+01   -0.17292E+04   -0.16979E+04  8064   0.607E+02
DAV:   3    -0.102775897667E+03   -0.11060E+03   -0.10942E+03  8064   0.160E+02
DAV:   4    -0.105043424946E+03   -0.22675E+01   -0.22654E+01  8064   0.245E+01
DAV:   5    -0.105093273485E+03   -0.49849E-01   -0.49843E-01  8064   0.361E+00
SDA:   6    -0.562564079175E+02    0.48837E+02   -0.49843E-01  8064   0.373E+03 0.000E+00
CGA:   7    -0.836071022681E+02   -0.27351E+02   -0.25080E+02  8064   0.116E+03 0.335E+02
CGA:   8    -0.877091172344E+02   -0.41020E+01   -0.41620E+01  8064   0.559E+02 0.898E+00
CGA:   9    -0.901584283299E+02   -0.24493E+01   -0.25450E+01  8064   0.127E+02-0.748E+00
CGA:  10    -0.917973180217E+02   -0.16389E+01   -0.16338E+01  8064   0.420E+01-0.524E-02
CGA:  11    -0.920552490146E+02   -0.25793E+00   -0.26494E+00  8064   0.527E+01-0.724E-01
CGA:  12    -0.922861165846E+02   -0.23087E+00   -0.24393E+00  8064   0.375E+01-0.229E+00
CGA:  13    -0.926650281811E+02   -0.37891E+00   -0.38584E+00  8064   0.168E+01-0.210E-01
CGA:  14    -0.928447754829E+02   -0.17975E+00   -0.18102E+00  8064   0.203E+01 0.515E-03
CGA:  15    -0.929057438477E+02   -0.60968E-01   -0.63964E-01  8064   0.748E+00-0.844E-01
CGA:  16    -0.929868147980E+02   -0.81071E-01   -0.80939E-01  8064   0.744E+00-0.605E-03
CGA:  17    -0.930252971306E+02   -0.38482E-01   -0.39248E-01  8064   0.700E+00-0.106E-01
CGA:  18    -0.930499694752E+02   -0.24672E-01   -0.25502E-01  8064   0.159E+00-0.187E-01
CGA:  19    -0.930692821730E+02   -0.19313E-01   -0.19317E-01  8064   0.447E+00 0.254E-03
CGA:  20    -0.930894729820E+02   -0.20191E-01   -0.20676E-01  8064   0.143E+00-0.731E-02
CGA:  21    -0.931006725066E+02   -0.11200E-01   -0.11337E-01  8064   0.908E-01-0.224E-03
CGA:  22    -0.931047585533E+02   -0.40860E-02   -0.41378E-02  8064   0.849E-01-0.645E-03
CGA:  23    -0.931111714117E+02   -0.64129E-02   -0.64304E-02  8064   0.580E-01 0.242E-04
CGA:  24    -0.931152941537E+02   -0.41227E-02   -0.41633E-02  8064   0.973E-01-0.173E-03
CGA:  25    -0.931215969332E+02   -0.63028E-02   -0.63338E-02  8064   0.256E-01-0.219E-03
CGA:  26    -0.931236626327E+02   -0.20657E-02   -0.20669E-02  8064   0.357E-01-0.409E-04
CGA:  27    -0.931255971977E+02   -0.19346E-02   -0.19336E-02  8064   0.315E-01-0.666E-04
CGA:  28    -0.931287047544E+02   -0.31076E-02   -0.31085E-02  8064   0.295E-01-0.312E-04
CGA:  29    -0.931297238807E+02   -0.10191E-02   -0.10305E-02  8064   0.112E-01-0.319E-03
CGA:  30    -0.931308764038E+02   -0.11525E-02   -0.11523E-02  8064   0.737E-02-0.258E-04
CGA:  31    -0.931312906289E+02   -0.41423E-03   -0.41336E-03  8064   0.882E-02-0.306E-04
CGA:  32    -0.931319167313E+02   -0.62610E-03   -0.62412E-03  8064   0.517E-02-0.644E-04
CGA:  33    -0.931321949077E+02   -0.27818E-03   -0.27591E-03  8064   0.371E-02-0.352E-04
CGA:  34    -0.931323575643E+02   -0.16266E-03   -0.16087E-03  8064   0.125E-02-0.201E-04
CGA:  35    -0.931325352494E+02   -0.17769E-03   -0.17819E-03  8064   0.196E-02-0.119E-04
CGA:  36    -0.931326005017E+02   -0.65252E-04   -0.65039E-04  8064   0.703E-03-0.586E-05
SDA:  37    -0.931326635233E+02   -0.63022E-04   -0.63070E-04  8064   0.721E-03 0.664E-05
CGA:  38    -0.931326824171E+02   -0.18894E-04   -0.18961E-04  8064   0.269E-03 0.308E-05
CGA:  39    -0.931327152839E+02   -0.32867E-04   -0.32690E-04  8064   0.482E-03 0.800E-05
CGA:  40    -0.931327494286E+02   -0.34145E-04   -0.34411E-04  8064   0.506E-03 0.113E-04
CGA:  41    -0.931327712335E+02   -0.21805E-04   -0.22184E-04  8064   0.107E-03 0.104E-04
CGA:  42    -0.931327931691E+02   -0.21936E-04   -0.20903E-04  8064   0.675E-04 0.115E-04
CGA:  43    -0.931327959601E+02   -0.27910E-05   -0.28120E-05  8064   0.584E-04 0.140E-05
CGA:  44    -0.931328020419E+02   -0.60818E-05   -0.60913E-05  8064   0.473E-04-0.241E-06
CGA:  45    -0.931328073475E+02   -0.53056E-05   -0.53238E-05  8064   0.329E-04-0.194E-06
CGA:  46    -0.931328086786E+02   -0.13311E-05   -0.13656E-05  8064   0.253E-04 0.133E-05
CGA:  47    -0.931328105228E+02   -0.18442E-05   -0.18853E-05  8064   0.633E-05 0.260E-05
CGA:  48    -0.931328107481E+02   -0.22533E-06   -0.23275E-06  8064   0.321E-05 0.737E-06
   1 F= -.93132811E+02 E0= -.93135249E+02  d E =-.931328E+02  mag=     2.0470
