       N       E                     dE             d eps       ncg     rms          ort
DAV:   1     0.173977847234E+04    0.17398E+04   -0.93675E+04  8064   0.255E+03
DAV:   2     0.782122285175E+01   -0.17320E+04   -0.17005E+04  8064   0.608E+02
DAV:   3    -0.102646103797E+03   -0.11047E+03   -0.10931E+03  8064   0.161E+02
DAV:   4    -0.104953942233E+03   -0.23078E+01   -0.23038E+01  8064   0.249E+01
DAV:   5    -0.105005435924E+03   -0.51494E-01   -0.51483E-01  8064   0.365E+00
SDA:   6    -0.564265293949E+02    0.48579E+02   -0.51483E-01  8064   0.375E+03 0.000E+00
CGA:   7    -0.830852703304E+02   -0.26659E+02   -0.24228E+02  8064   0.134E+03 0.388E+02
CGA:   8    -0.875759031535E+02   -0.44906E+01   -0.42691E+01  8064   0.453E+02 0.118E+02
CGA:   9    -0.902459896024E+02   -0.26701E+01   -0.27622E+01  8064   0.129E+02-0.836E+00
CGA:  10    -0.917467511753E+02   -0.15008E+01   -0.14959E+01  8064   0.665E+01 0.880E-02
CGA:  11    -0.919768690602E+02   -0.23012E+00   -0.23396E+00  8064   0.461E+01-0.845E-01
CGA:  12    -0.923264309153E+02   -0.34956E+00   -0.35410E+00  8064   0.259E+01-0.299E-01
CGA:  13    -0.926516226506E+02   -0.32519E+00   -0.32583E+00  8064   0.276E+01 0.552E-02
CGA:  14    -0.927847209750E+02   -0.13310E+00   -0.14002E+00  8064   0.281E+01-0.108E+00
CGA:  15    -0.929085269869E+02   -0.12381E+00   -0.12814E+00  8064   0.601E+00-0.804E-01
CGA:  16    -0.929749701205E+02   -0.66443E-01   -0.66319E-01  8064   0.142E+01-0.634E-03
CGA:  17    -0.930249553870E+02   -0.49985E-01   -0.51279E-01  8064   0.471E+00-0.333E-01
CGA:  18    -0.930572415094E+02   -0.32286E-01   -0.32768E-01  8064   0.176E+00-0.338E-02
CGA:  19    -0.930712015146E+02   -0.13960E-01   -0.14005E-01  8064   0.358E+00-0.289E-04
CGA:  20    -0.930901202587E+02   -0.18919E-01   -0.19112E-01  8064   0.132E+00-0.225E-02
CGA:  21    -0.931027105366E+02   -0.12590E-01   -0.12668E-01  8064   0.192E+00 0.488E-03
CGA:  22    -0.931090615343E+02   -0.63510E-02   -0.65306E-02  8064   0.486E-01-0.405E-02
CGA:  23    -0.931135682200E+02   -0.45067E-02   -0.45087E-02  8064   0.491E-01 0.909E-04
CGA:  24    -0.931171256149E+02   -0.35574E-02   -0.35823E-02  8064   0.887E-01-0.886E-04
CGA:  25    -0.931228415313E+02   -0.57159E-02   -0.57914E-02  8064   0.241E-01-0.502E-03
CGA:  26    -0.931242999719E+02   -0.14584E-02   -0.14596E-02  8064   0.317E-01-0.615E-04
CGA:  27    -0.931263740853E+02   -0.20741E-02   -0.20749E-02  8064   0.174E-01-0.870E-04
CGA:  28    -0.931282521862E+02   -0.18781E-02   -0.18783E-02  8064   0.280E-01-0.781E-05
CGA:  29    -0.931294198391E+02   -0.11677E-02   -0.11738E-02  8064   0.145E-01-0.139E-03
CGA:  30    -0.931305043726E+02   -0.10845E-02   -0.10845E-02  8064   0.573E-02-0.608E-05
CGA:  31    -0.931307896898E+02   -0.28532E-03   -0.28478E-03  8064   0.638E-02-0.140E-04
CGA:  32    -0.931314885557E+02   -0.69887E-03   -0.69908E-03  8064   0.422E-02-0.546E-04
CGA:  33    -0.931316843426E+02   -0.19579E-03   -0.19384E-03  8064   0.317E-02-0.224E-04
CGA:  34    -0.931318560349E+02   -0.17169E-03   -0.16982E-03  8064   0.138E-02-0.278E-04
CGA:  35    -0.931319895054E+02   -0.13347E-03   -0.13340E-03  8064   0.153E-02-0.254E-04
CGA:  36    -0.931320485089E+02   -0.59003E-04   -0.58530E-04  8064   0.826E-03-0.562E-05
SDA:  37    -0.931321350140E+02   -0.86505E-04   -0.86495E-04  8064   0.602E-03 0.292E-05
CGA:  38    -0.931321507592E+02   -0.15745E-04   -0.15784E-04  8064   0.247E-03 0.274E-05
CGA:  39    -0.931321911129E+02   -0.40354E-04   -0.39824E-04  8064   0.411E-03 0.917E-05
CGA:  40    -0.931322122690E+02   -0.21156E-04   -0.21458E-04  8064   0.271E-03 0.799E-05
CGA:  41    -0.931322258817E+02   -0.13613E-04   -0.13874E-04  8064   0.120E-03 0.736E-05
CGA:  42    -0.931322456149E+02   -0.19733E-04   -0.19030E-04  8064   0.583E-04 0.123E-04
CGA:  43    -0.931322476724E+02   -0.20575E-05   -0.20815E-05  8064   0.390E-04 0.132E-05
CGA:  44    -0.931322549261E+02   -0.72537E-05   -0.74311E-05  8064   0.275E-04-0.118E-05
CGA:  45    -0.931322565455E+02   -0.16194E-05   -0.16415E-05  8064   0.443E-04 0.124E-05
CGA:  46    -0.931322597412E+02   -0.31956E-05   -0.32551E-05  8064   0.882E-05 0.277E-05
CGA:  47    -0.931322601625E+02   -0.42137E-06   -0.43453E-06  8064   0.534E-05 0.844E-06
   1 F= -.93132260E+02 E0= -.93134701E+02  d E =-.931323E+02  mag=     2.0917
       N       E                     dE             d eps       ncg     rms          ort
SDA:   1    -0.931206893992E+02    0.11570E-01    0.00000E+00  8064   0.610E-01 0.000E+00
CGA:   2    -0.931243105149E+02   -0.36211E-02   -0.36210E-02  8064   0.762E-01-0.139E-04
CGA:   3    -0.931275748224E+02   -0.32643E-02   -0.32639E-02  8064   0.228E-01-0.170E-05
CGA:   4    -0.931293852214E+02   -0.18104E-02   -0.18105E-02  8064   0.274E-01 0.345E-05
CGA:   5    -0.931307297793E+02   -0.13446E-02   -0.13449E-02  8064   0.172E-01-0.400E-05
CGA:   6    -0.931319929035E+02   -0.12631E-02   -0.12632E-02  8064   0.274E-02 0.664E-05
CGA:   7    -0.931321913205E+02   -0.19842E-03   -0.19843E-03  8064   0.387E-02 0.651E-07
CGA:   8    -0.931323556282E+02   -0.16431E-03   -0.16435E-03  8064   0.179E-02-0.355E-06
CGA:   9    -0.931324706821E+02   -0.11505E-03   -0.11507E-03  8064   0.468E-03 0.933E-06
CGA:  10    -0.931324916606E+02   -0.20979E-04   -0.20972E-04  8064   0.423E-03-0.245E-06
CGA:  11    -0.931325366138E+02   -0.44953E-04   -0.44967E-04  8064   0.123E-03-0.447E-06
CGA:  12    -0.931325423859E+02   -0.57721E-05   -0.57743E-05  8064   0.135E-03 0.728E-07
CGA:  13    -0.931325511843E+02   -0.87984E-05   -0.88014E-05  8064   0.779E-04 0.210E-06
CGA:  14    -0.931325575611E+02   -0.63769E-05   -0.63772E-05  8064   0.486E-04 0.122E-06
CGA:  15    -0.931325592244E+02   -0.16632E-05   -0.16627E-05  8064   0.180E-04-0.352E-07
CGA:  16    -0.931325616263E+02   -0.24019E-05   -0.23996E-05  8064   0.251E-04 0.105E-06
CGA:  17    -0.931325625691E+02   -0.94279E-06   -0.94238E-06  8064   0.130E-04 0.442E-07
   2 F= -.93132563E+02 E0= -.93135013E+02  d E =-.302407E-03  mag=     2.0832
       N       E                     dE             d eps       ncg     rms          ort
SDA:   1    -0.930631684356E+02    0.69393E-01    0.00000E+00  8064   0.346E+00 0.000E+00
CGA:   2    -0.930865538544E+02   -0.23385E-01   -0.23390E-01  8064   0.400E+00 0.171E-03
CGA:   3    -0.931044568630E+02   -0.17903E-01   -0.17894E-01  8064   0.120E+00 0.481E-04
CGA:   4    -0.931160825449E+02   -0.11626E-01   -0.11623E-01  8064   0.168E+00 0.722E-04
CGA:   5    -0.931225956924E+02   -0.65131E-02   -0.65158E-02  8064   0.998E-01-0.632E-04
CGA:   6    -0.931294532850E+02   -0.68576E-02   -0.68576E-02  8064   0.133E-01 0.411E-05
CGA:   7    -0.931307231852E+02   -0.12699E-02   -0.12697E-02  8064   0.225E-01 0.515E-05
CGA:   8    -0.931317256084E+02   -0.10024E-02   -0.10025E-02  8064   0.714E-02-0.289E-05
CGA:   9    -0.931320938465E+02   -0.36824E-03   -0.36823E-03  8064   0.314E-02 0.785E-06
CGA:  10    -0.931322199499E+02   -0.12610E-03   -0.12611E-03  8064   0.249E-02-0.112E-06
CGA:  11    -0.931324748383E+02   -0.25489E-03   -0.25490E-03  8064   0.606E-03-0.281E-06
CGA:  12    -0.931325192638E+02   -0.44426E-04   -0.44423E-04  8064   0.811E-03 0.103E-05
CGA:  13    -0.931325606464E+02   -0.41383E-04   -0.41420E-04  8064   0.466E-03 0.180E-05
CGA:  14    -0.931325939758E+02   -0.33329E-04   -0.33327E-04  8064   0.345E-03 0.114E-05
CGA:  15    -0.931326045571E+02   -0.10581E-04   -0.10586E-04  8064   0.943E-04 0.100E-06
CGA:  16    -0.931326213948E+02   -0.16838E-04   -0.16846E-04  8064   0.952E-04-0.482E-07
CGA:  17    -0.931326252921E+02   -0.38972E-05   -0.38972E-05  8064   0.581E-04-0.208E-08
CGA:  18    -0.931326286286E+02   -0.33365E-05   -0.33404E-05  8064   0.346E-04 0.375E-06
CGA:  19    -0.931326309661E+02   -0.23376E-05   -0.23390E-05  8064   0.420E-04 0.581E-06
CGA:  20    -0.931326329491E+02   -0.19829E-05   -0.19892E-05  8064   0.124E-04 0.256E-06
CGA:  21    -0.931326344706E+02   -0.15216E-05   -0.15757E-05  8064   0.167E-04-0.907E-06
CGA:  22    -0.931326350967E+02   -0.62611E-06   -0.61248E-06  8064   0.899E-05-0.379E-06
   3 F= -.93132635E+02 E0= -.93135085E+02  d E =-.374934E-03  mag=     2.0549
       N       E                     dE             d eps       ncg     rms          ort
SDA:   1    -0.931253565224E+02    0.72779E-02    0.00000E+00  8064   0.348E-01 0.000E+00
CGA:   2    -0.931277253245E+02   -0.23688E-02   -0.23688E-02  8064   0.525E-01-0.664E-05
CGA:   3    -0.931297283144E+02   -0.20030E-02   -0.20027E-02  8064   0.111E-01 0.163E-05
CGA:   4    -0.931313375936E+02   -0.16093E-02   -0.16096E-02  8064   0.110E-01-0.466E-05
CGA:   5    -0.931321583301E+02   -0.82074E-03   -0.82074E-03  8064   0.805E-02-0.182E-05
CGA:   6    -0.931323906943E+02   -0.23236E-03   -0.23225E-03  8064   0.145E-02 0.182E-05
CGA:   7    -0.931325415074E+02   -0.15081E-03   -0.15082E-03  8064   0.291E-02-0.352E-06
CGA:   8    -0.931326444813E+02   -0.10297E-03   -0.10296E-03  8064   0.402E-03-0.330E-06
CGA:   9    -0.931326754240E+02   -0.30943E-04   -0.30939E-04  8064   0.242E-03 0.603E-06
CGA:  10    -0.931327019118E+02   -0.26488E-04   -0.26491E-04  8064   0.322E-03-0.722E-07
CGA:  11    -0.931327105016E+02   -0.85899E-05   -0.85916E-05  8064   0.514E-04 0.180E-07
CGA:  12    -0.931327170458E+02   -0.65442E-05   -0.65320E-05  8064   0.743E-04 0.248E-06
CGA:  13    -0.931327204540E+02   -0.34082E-05   -0.34063E-05  8064   0.447E-04-0.850E-07
CGA:  14    -0.931327230135E+02   -0.25595E-05   -0.25582E-05  8064   0.112E-04-0.910E-07
CGA:  15    -0.931327239374E+02   -0.92387E-06   -0.92377E-06  8064   0.263E-04-0.505E-07
CGA:  16    -0.931327253257E+02   -0.13884E-05   -0.13845E-05  8064   0.444E-05-0.122E-06
CGA:  17    -0.931327257577E+02   -0.43197E-06   -0.43518E-06  8064   0.508E-05-0.138E-06
   4 F= -.93132726E+02 E0= -.93135172E+02  d E =-.465595E-03  mag=     2.0612
       N       E                     dE             d eps       ncg     rms          ort
SDA:   1    -0.931273913955E+02    0.53339E-02    0.00000E+00  8064   0.370E-01 0.000E+00
CGA:   2    -0.931286757385E+02   -0.12843E-02   -0.12848E-02  8064   0.240E-01-0.162E-04
CGA:   3    -0.931304790270E+02   -0.18033E-02   -0.18033E-02  8064   0.123E-01-0.328E-05
CGA:   4    -0.931310041549E+02   -0.52513E-03   -0.52510E-03  8064   0.106E-01 0.508E-06
CGA:   5    -0.931319520494E+02   -0.94789E-03   -0.94794E-03  8064   0.707E-02-0.203E-05
CGA:   6    -0.931324675837E+02   -0.51553E-03   -0.51553E-03  8064   0.180E-02 0.570E-06
CGA:   7    -0.931325432074E+02   -0.75624E-04   -0.75616E-04  8064   0.162E-02-0.591E-06
CGA:   8    -0.931326704989E+02   -0.12729E-03   -0.12729E-03  8064   0.916E-03-0.428E-07
CGA:   9    -0.931327068529E+02   -0.36354E-04   -0.36352E-04  8064   0.470E-03-0.100E-06
CGA:  10    -0.931327313064E+02   -0.24454E-04   -0.24444E-04  8064   0.197E-03-0.642E-06
CGA:  11    -0.931327586946E+02   -0.27388E-04   -0.27381E-04  8064   0.166E-03 0.108E-06
CGA:  12    -0.931327635679E+02   -0.48733E-05   -0.48723E-05  8064   0.689E-04-0.389E-07
CGA:  13    -0.931327725634E+02   -0.89954E-05   -0.89869E-05  8064   0.103E-03 0.151E-06
CGA:  14    -0.931327760211E+02   -0.34577E-05   -0.34649E-05  8064   0.295E-04 0.230E-06
CGA:  15    -0.931327784996E+02   -0.24786E-05   -0.24772E-05  8064   0.203E-04 0.779E-07
CGA:  16    -0.931327800385E+02   -0.15389E-05   -0.15394E-05  8064   0.224E-04-0.118E-06
CGA:  17    -0.931327807801E+02   -0.74160E-06   -0.73697E-06  8064   0.522E-05-0.102E-06
   5 F= -.93132781E+02 E0= -.93135220E+02  d E =-.550224E-04  mag=     2.0584
       N       E                     dE             d eps       ncg     rms          ort
SDA:   1    -0.931323513911E+02    0.42865E-03    0.00000E+00  8064   0.222E-01 0.000E+00
CGA:   2    -0.931327628227E+02   -0.41143E-03   -0.41157E-03  8064   0.252E-03-0.100E-04
CGA:   3    -0.931327692814E+02   -0.64587E-05   -0.64493E-05  8064   0.698E-04-0.219E-06
CGA:   4    -0.931327743448E+02   -0.50635E-05   -0.50648E-05  8064   0.357E-04-0.181E-06
CGA:   5    -0.931327785685E+02   -0.42237E-05   -0.42432E-05  8064   0.210E-04-0.358E-06
CGA:   6    -0.931327801763E+02   -0.16078E-05   -0.16090E-05  8064   0.369E-04 0.719E-07
CGA:   7    -0.931327817714E+02   -0.15951E-05   -0.15964E-05  8064   0.753E-05 0.825E-07
CGA:   8    -0.931327821274E+02   -0.35596E-06   -0.35675E-06  8064   0.369E-05-0.160E-07
   6 F= -.93132782E+02 E0= -.93135220E+02  d E =-.563697E-04  mag=     2.0582
       N       E                     dE             d eps       ncg     rms          ort
SDA:   1    -0.931282436565E+02    0.45381E-02    0.00000E+00  8064   0.210E-01 0.000E+00
CGA:   2    -0.931300070398E+02   -0.17634E-02   -0.17634E-02  8064   0.275E-01-0.463E-05
CGA:   3    -0.931308883431E+02   -0.88130E-03   -0.88133E-03  8064   0.755E-02-0.475E-05
CGA:   4    -0.931316897162E+02   -0.80137E-03   -0.80150E-03  8064   0.112E-01-0.348E-05
CGA:   5    -0.931322368332E+02   -0.54712E-03   -0.54713E-03  8064   0.677E-02 0.967E-06
CGA:   6    -0.931325867058E+02   -0.34987E-03   -0.34987E-03  8064   0.949E-03-0.876E-06
CGA:   7    -0.931327022425E+02   -0.11554E-03   -0.11544E-03  8064   0.133E-02 0.162E-05
CGA:   8    -0.931327458204E+02   -0.43578E-04   -0.43590E-04  8064   0.534E-03 0.388E-06
CGA:   9    -0.931327747770E+02   -0.28957E-04   -0.28954E-04  8064   0.143E-03-0.315E-06
CGA:  10    -0.931327896187E+02   -0.14842E-04   -0.14843E-04  8064   0.292E-03-0.819E-07
CGA:  11    -0.931328018531E+02   -0.12234E-04   -0.12225E-04  8064   0.341E-04-0.412E-06
CGA:  12    -0.931328059414E+02   -0.40882E-05   -0.41009E-05  8064   0.819E-04-0.204E-06
CGA:  13    -0.931328088609E+02   -0.29195E-05   -0.29187E-05  8064   0.255E-04-0.589E-07
CGA:  14    -0.931328106276E+02   -0.17668E-05   -0.17666E-05  8064   0.100E-04 0.917E-07
CGA:  15    -0.931328115814E+02   -0.95373E-06   -0.95179E-06  8064   0.163E-04 0.771E-07
   7 F= -.93132812E+02 E0= -.93135259E+02  d E =-.294540E-04  mag=     2.0515
       N       E                     dE             d eps       ncg     rms          ort
SDA:   1    -0.930930031013E+02    0.39808E-01    0.00000E+00  8064   0.179E+00 0.000E+00
CGA:   2    -0.931095353547E+02   -0.16532E-01   -0.16531E-01  8064   0.201E+00 0.232E-04
CGA:   3    -0.931162840406E+02   -0.67487E-02   -0.67456E-02  8064   0.670E-01 0.368E-04
CGA:   4    -0.931231437589E+02   -0.68597E-02   -0.68611E-02  8064   0.113E+00-0.362E-04
CGA:   5    -0.931276000558E+02   -0.44563E-02   -0.44571E-02  8064   0.512E-01-0.650E-05
CGA:   6    -0.931308077531E+02   -0.32077E-02   -0.32077E-02  8064   0.754E-02 0.336E-06
CGA:   7    -0.931318619995E+02   -0.10542E-02   -0.10542E-02  8064   0.102E-01 0.120E-06
CGA:   8    -0.931321947535E+02   -0.33275E-03   -0.33279E-03  8064   0.349E-02 0.776E-06
CGA:   9    -0.931323728108E+02   -0.17806E-03   -0.17806E-03  8064   0.167E-02-0.934E-06
CGA:  10    -0.931324789423E+02   -0.10613E-03   -0.10613E-03  8064   0.228E-02-0.886E-06
CGA:  11    -0.931326098123E+02   -0.13087E-03   -0.13087E-03  8064   0.306E-03 0.309E-06
CGA:  12    -0.931326547241E+02   -0.44912E-04   -0.44923E-04  8064   0.514E-03-0.101E-06
CGA:  13    -0.931326736128E+02   -0.18889E-04   -0.18895E-04  8064   0.280E-03 0.225E-06
CGA:  14    -0.931326901169E+02   -0.16504E-04   -0.16508E-04  8064   0.105E-03 0.258E-06
CGA:  15    -0.931326962374E+02   -0.61205E-05   -0.61183E-05  8064   0.134E-03-0.136E-06
CGA:  16    -0.931327057614E+02   -0.95240E-05   -0.95220E-05  8064   0.315E-04 0.162E-06
CGA:  17    -0.931327089688E+02   -0.32075E-05   -0.31877E-05  8064   0.435E-04 0.605E-06
CGA:  18    -0.931327106419E+02   -0.16731E-05   -0.16842E-05  8064   0.228E-04 0.359E-06
CGA:  19    -0.931327119984E+02   -0.13565E-05   -0.13596E-05  8064   0.848E-05 0.233E-06
CGA:  20    -0.931327126343E+02   -0.63583E-06   -0.63509E-06  8064   0.140E-04 0.461E-07
   8 F= -.93132713E+02 E0= -.93135192E+02  d E =0.694931E-04  mag=     2.0311
       N       E                     dE             d eps       ncg     rms          ort
SDA:   1    -0.931144144791E+02    0.18298E-01    0.00000E+00  8064   0.856E-01 0.000E+00
CGA:   2    -0.931220000922E+02   -0.75856E-02   -0.75857E-02  8064   0.929E-01-0.898E-05
CGA:   3    -0.931249910564E+02   -0.29910E-02   -0.29919E-02  8064   0.350E-01-0.273E-04
CGA:   4    -0.931282053791E+02   -0.32143E-02   -0.32139E-02  8064   0.392E-01 0.871E-05
CGA:   5    -0.931301958773E+02   -0.19905E-02   -0.19903E-02  8064   0.307E-01-0.294E-05
CGA:   6    -0.931319043662E+02   -0.17085E-02   -0.17084E-02  8064   0.386E-02-0.223E-05
CGA:   7    -0.931323342528E+02   -0.42989E-03   -0.42996E-03  8064   0.462E-02-0.203E-05
CGA:   8    -0.931325228803E+02   -0.18863E-03   -0.18861E-03  8064   0.289E-02-0.122E-05
CGA:   9    -0.931326504380E+02   -0.12756E-03   -0.12756E-03  8064   0.587E-03 0.551E-06
CGA:  10    -0.931327025789E+02   -0.52141E-04   -0.52121E-04  8064   0.116E-02 0.894E-06
CGA:  11    -0.931327607443E+02   -0.58165E-04   -0.58173E-04  8064   0.152E-03 0.306E-06
CGA:  12    -0.931327786619E+02   -0.17918E-04   -0.17881E-04  8064   0.235E-03 0.745E-06
CGA:  13    -0.931327879652E+02   -0.93033E-05   -0.93111E-05  8064   0.153E-03 0.198E-06
CGA:  14    -0.931327975833E+02   -0.96181E-05   -0.96177E-05  8064   0.433E-04 0.105E-08
CGA:  15    -0.931328004482E+02   -0.28649E-05   -0.28657E-05  8064   0.627E-04 0.170E-07
CGA:  16    -0.931328045747E+02   -0.41265E-05   -0.41260E-05  8064   0.196E-04-0.315E-06
CGA:  17    -0.931328060174E+02   -0.14427E-05   -0.14434E-05  8064   0.185E-04-0.194E-06
CGA:  18    -0.931328067636E+02   -0.74618E-06   -0.74268E-06  8064   0.127E-04-0.913E-07
   9 F= -.93132807E+02 E0= -.93135266E+02  d E =-.246363E-04  mag=     2.0446
       N       E                     dE             d eps       ncg     rms          ort
SDA:   1    -0.931315039985E+02    0.13020E-02    0.00000E+00  8064   0.926E-02 0.000E+00
CGA:   2    -0.931318624293E+02   -0.35843E-03   -0.35842E-03  8064   0.653E-02-0.179E-05
CGA:   3    -0.931322561554E+02   -0.39373E-03   -0.39373E-03  8064   0.286E-02 0.642E-06
CGA:   4    -0.931324059586E+02   -0.14980E-03   -0.14981E-03  8064   0.300E-02-0.350E-07
CGA:   5    -0.931325851126E+02   -0.17915E-03   -0.17915E-03  8064   0.170E-02-0.989E-06
CGA:   6    -0.931327509499E+02   -0.16584E-03   -0.16581E-03  8064   0.390E-03 0.717E-06
CGA:   7    -0.931327705079E+02   -0.19558E-04   -0.19550E-04  8064   0.362E-03-0.577E-06
CGA:   8    -0.931327896876E+02   -0.19180E-04   -0.19176E-04  8064   0.200E-03-0.441E-06
CGA:   9    -0.931328015276E+02   -0.11840E-04   -0.11840E-04  8064   0.127E-03 0.876E-07
CGA:  10    -0.931328057512E+02   -0.42236E-05   -0.42237E-05  8064   0.341E-04-0.928E-08
CGA:  11    -0.931328114321E+02   -0.56809E-05   -0.56579E-05  8064   0.200E-04 0.224E-06
CGA:  12    -0.931328122258E+02   -0.79367E-06   -0.79513E-06  8064   0.152E-04 0.170E-07
CGA:  13    -0.931328133667E+02   -0.11410E-05   -0.11390E-05  8064   0.115E-04 0.129E-06
CGA:  14    -0.931328139966E+02   -0.62987E-06   -0.62942E-06  8064   0.995E-05 0.666E-07
  10 F= -.93132814E+02 E0= -.93135267E+02  d E =-.318693E-04  mag=     2.0482
       N       E                     dE             d eps       ncg     rms          ort
SDA:   1    -0.931326723936E+02    0.14097E-03    0.00000E+00  8064   0.196E-02 0.000E+00
CGA:   2    -0.931327223701E+02   -0.49976E-04   -0.49963E-04  8064   0.553E-03-0.105E-05
CGA:   3    -0.931327569156E+02   -0.34546E-04   -0.34546E-04  8064   0.330E-03-0.503E-06
CGA:   4    -0.931327744172E+02   -0.17502E-04   -0.17502E-04  8064   0.301E-03 0.471E-07
CGA:   5    -0.931327910888E+02   -0.16672E-04   -0.16671E-04  8064   0.125E-03-0.221E-06
CGA:   6    -0.931328080379E+02   -0.16949E-04   -0.16983E-04  8064   0.593E-04-0.454E-06
CGA:   7    -0.931328105245E+02   -0.24865E-05   -0.24881E-05  8064   0.384E-04 0.901E-08
CGA:   8    -0.931328121487E+02   -0.16243E-05   -0.16263E-05  8064   0.163E-04 0.104E-06
CGA:   9    -0.931328137736E+02   -0.16249E-05   -0.16224E-05  8064   0.178E-04 0.811E-07
CGA:  10    -0.931328143327E+02   -0.55911E-06   -0.55770E-06  8064   0.317E-05-0.357E-07
  11 F= -.93132814E+02 E0= -.93135265E+02  d E =-.322053E-04  mag=     2.0494
       N       E                     dE             d eps       ncg     rms          ort
SDA:   1    -0.931326916552E+02    0.12212E-03    0.00000E+00  8064   0.649E-02 0.000E+00
CGA:   2    -0.931328048232E+02   -0.11317E-03   -0.11315E-03  8064   0.977E-04 0.200E-05
CGA:   3    -0.931328090841E+02   -0.42609E-05   -0.42679E-05  8064   0.361E-04 0.284E-06
CGA:   4    -0.931328107096E+02   -0.16256E-05   -0.16250E-05  8064   0.239E-04 0.268E-07
CGA:   5    -0.931328132134E+02   -0.25038E-05   -0.24986E-05  8064   0.102E-04 0.896E-07
CGA:   6    -0.931328146494E+02   -0.14360E-05   -0.14321E-05  8064   0.667E-05 0.219E-07
CGA:   7    -0.931328150090E+02   -0.35963E-06   -0.36053E-06  8064   0.343E-05 0.374E-07
  12 F= -.93132815E+02 E0= -.93135267E+02  d E =-.328816E-04  mag=     2.0491
