 vasp.6.4.3 19Mar24 (build Mar 26 2024 14:05:37) complex                        
  
 executed on             LinuxIFC date 2024.12.16  15:10:59
 running  128 mpi-ranks, on    1 nodes
 distrk:  each k-point on   32 cores,    4 groups
 distr:  one band on NCORE=   1 cores,   32 groups


--------------------------------------------------------------------------------------------------------


 INCAR:
   ALGO = All
   EDIFF = 1e-06
   EDIFFG = -0.01
   ENCUT = 520
   GGA = Pe
   IBRION = 2
   ISIF = 4
   ISMEAR = 1
   ISPIN = 2
   KPAR = 4
   LCHARG = True
   LORBIT = 11
   LREAL = False
   LWAVE = False
   MAGMOM = 1*-2.401 1*2.3 1*2.301 2*-2.406 1*2.475 1*-2.401 1*2.3 1*2.301 2*-0.091 1*0.199
   NELM = 200
   NSW = 100
   PREC = Accurate
   SIGMA = 0.2

 POTCAR:    PAW_PBE Fe_pv 02Aug2007               
 POTCAR:    PAW_PBE Pt 04Feb2005                  
 -----------------------------------------------------------------------------
|                                                                             |
|           W    W    AA    RRRRR   N    N  II  N    N   GGGG   !!!           |
|           W    W   A  A   R    R  NN   N  II  NN   N  G    G  !!!           |
|           W    W  A    A  R    R  N N  N  II  N N  N  G       !!!           |
|           W WW W  AAAAAA  RRRRR   N  N N  II  N  N N  G  GGG   !            |
|           WW  WW  A    A  R   R   N   NN  II  N   NN  G    G                |
|           W    W  A    A  R    R  N    N  II  N    N   GGGG   !!!           |
|                                                                             |
|     For optimal performance we recommend to set                             |
|       NCORE = 2 up to number-of-cores-per-socket                            |
|     NCORE specifies how many cores store one orbital (NPAR=cpu/NCORE).      |
|     This setting can greatly improve the performance of VASP for DFT.       |
|     The default, NCORE=1 might be grossly inefficient on modern             |
|     multi-core architectures or massively parallel machines. Do your        |
|     own testing! More info at https://www.vasp.at/wiki/index.php/NCORE      |
|     Unfortunately you need to use the default for GW and RPA                |
|     calculations (for HF NCORE is supported but not extensively tested      |
|     yet).                                                                   |
|                                                                             |
 -----------------------------------------------------------------------------

 POTCAR:    PAW_PBE Fe_pv 02Aug2007               
   SHA256 =  5d22e414b1f82158bf2c7ecb8b97b28fd0923e48cadc1c3bf74d524558f5dd32 Fe_pv/POTCAR          
   COPYR  = (c) Copyright 02Aug2007 Georg Kresse                                                    
   COPYR  = This file is part of the software VASP. Any use, copying, and all other rights are regul
   COPYR  = If you do not have a valid VASP license, you may not use, copy or distribute this file. 
   VRHFIN =Fe:  3pd7s1                                                                              
   LEXCH  = PE                                                                                      
   EATOM  =  2457.4239 eV,  180.6156 Ry                                                             
                                                                                                    
   TITEL  = PAW_PBE Fe_pv 02Aug2007                                                                 
   LULTRA =        F    use ultrasoft PP ?                                                          
   IUNSCR =        1    unscreen: 0-lin 1-nonlin 2-no                                               
   RPACOR =    1.750    partial core radius                                                         
   POMASS =   55.847; ZVAL   =   14.000    mass and valenz                                          
   RCORE  =    2.200    outmost cutoff radius                                                       
   RWIGS  =    2.200; RWIGS  =    1.164    wigner-seitz radius (au A)                               
   ENMAX  =  293.238; ENMIN  =  219.928 eV                                                          
   ICORE  =        3    local potential                                                             
   LCOR   =        T    correct aug charges                                                         
   LPAW   =        T    paw PP                                                                      
   EAUG   =  578.342                                                                                
   DEXC   =    0.000                                                                                
   RMAX   =    2.249    core radius for proj-oper                                                   
   RAUG   =    1.300    factor for augmentation sphere                                              
   RDEP   =    2.296    radius for radial grids                                                     
   RDEPT  =    1.766    core radius for aug-charge                                                  
                                                                                                    
   Atomic configuration                                                                             
    8 entries                                                                                       
     n  l   j            E        occ.                                                              
     1  0  0.50     -6993.8440   2.0000                                                             
     2  0  0.50      -814.6047   2.0000                                                             
     2  1  1.50      -693.3689   6.0000                                                             
     3  0  0.50       -89.4732   2.0000                                                             
     3  1  1.50       -55.6373   6.0000                                                             
     3  2  2.50        -3.8151   7.0000                                                             
     4  0  0.50        -4.2551   1.0000                                                             
     4  3  2.50        -1.3606   0.0000                                                             
   Description                                                                                      
     l       E           TYP  RCUT    TYP  RCUT                                                     
     1    -55.6372668     23  2.000                                                                 
     1     -5.4423304     23  2.000                                                                 
     2     -3.8151096     23  2.200                                                                 
     2     -5.1756922     23  2.200                                                                 
     0     -4.2550951     23  2.200                                                                 
     0     27.2116520     23  2.200                                                                 
     3     -1.3605826     23  2.200                                                                 
  local pseudopotential read in
  partial core-charges read in
  partial kinetic energy density read in
  atomic valenz-charges read in
  non local Contribution for L=           1  read in
    real space projection operators read in
  non local Contribution for L=           1  read in
    real space projection operators read in
  non local Contribution for L=           2  read in
    real space projection operators read in
  non local Contribution for L=           2  read in
    real space projection operators read in
  non local Contribution for L=           0  read in
    real space projection operators read in
  non local Contribution for L=           0  read in
    real space projection operators read in
    PAW grid and wavefunctions read in
 
   number of l-projection  operators is LMAX  =           6
   number of lm-projection operators is LMMAX =          18
 
 POTCAR:    PAW_PBE Pt 04Feb2005                  
   SHA256 =  3ed90460adef76debcff1cfb73ee1349b515b1a3db03439735b44de3a8db7dc8 Pt/POTCAR             
   COPYR  = (c) Copyright 04Feb2005 Georg Kresse                                                    
   COPYR  = This file is part of the software VASP. Any use, copying, and all other rights are regul
   COPYR  = If you do not have a valid VASP license, you may not use, copy or distribute this file. 
   VRHFIN =Pt: s1d9                                                                                 
   LEXCH  = PE                                                                                      
   EATOM  =   729.1176 eV,   53.5886 Ry                                                             
                                                                                                    
   TITEL  = PAW_PBE Pt 04Feb2005                                                                    
   LULTRA =        F    use ultrasoft PP ?                                                          
   IUNSCR =        1    unscreen: 0-lin 1-nonlin 2-no                                               
   RPACOR =    2.330    partial core radius                                                         
   POMASS =  195.080; ZVAL   =   10.000    mass and valenz                                          
   RCORE  =    2.600    outmost cutoff radius                                                       
   RWIGS  =    2.750; RWIGS  =    1.455    wigner-seitz radius (au A)                               
   ENMAX  =  230.283; ENMIN  =  172.712 eV                                                          
   ICORE  =        3    local potential                                                             
   LCOR   =        T    correct aug charges                                                         
   LPAW   =        T    paw PP                                                                      
   EAUG   =  358.966                                                                                
   DEXC   =    0.000                                                                                
   RMAX   =    2.658    core radius for proj-oper                                                   
   RAUG   =    1.300    factor for augmentation sphere                                              
   RDEP   =    2.761    radius for radial grids                                                     
   RDEPT  =    2.203    core radius for aug-charge                                                  
                                                                                                    
   Atomic configuration                                                                             
   16 entries                                                                                       
     n  l   j            E        occ.                                                              
     1  0  0.50    -78401.1885   2.0000                                                             
     2  0  0.50    -13770.7750   2.0000                                                             
     2  1  1.50    -11931.0468   6.0000                                                             
     3  0  0.50     -3234.7234   2.0000                                                             
     3  1  1.50     -2699.2216   6.0000                                                             
     3  2  2.50     -2119.5714  10.0000                                                             
     4  0  0.50      -695.1528   2.0000                                                             
     4  1  1.50      -519.6034   6.0000                                                             
     4  2  2.50      -306.6786  10.0000                                                             
     4  3  3.50       -70.1041  14.0000                                                             
     5  0  0.50      -101.7747   2.0000                                                             
     5  1  1.50       -55.9873   6.0000                                                             
     5  2  2.50        -6.1423   9.0000                                                             
     6  0  0.50        -5.6573   1.0000                                                             
     6  1  1.50        -6.8029   0.0000                                                             
     5  3  2.50        -1.3606   0.0000                                                             
   Description                                                                                      
     l       E           TYP  RCUT    TYP  RCUT                                                     
     2     -6.1423404     23  2.500                                                                 
     2     -7.5029230     23  2.500                                                                 
     0     -5.6573207     23  2.500                                                                 
     0      0.7416693     23  2.500                                                                 
     1     -2.7211652     23  2.600                                                                 
     1     20.4087390     23  2.600                                                                 
     3     -1.3605826     23  2.500                                                                 
  local pseudopotential read in
  partial core-charges read in
  partial kinetic energy density read in
  atomic valenz-charges read in
  non local Contribution for L=           2  read in
    real space projection operators read in
  non local Contribution for L=           2  read in
    real space projection operators read in
  non local Contribution for L=           0  read in
    real space projection operators read in
  non local Contribution for L=           0  read in
    real space projection operators read in
  non local Contribution for L=           1  read in
    real space projection operators read in
  non local Contribution for L=           1  read in
    real space projection operators read in
    PAW grid and wavefunctions read in
 
   number of l-projection  operators is LMAX  =           6
   number of lm-projection operators is LMMAX =          18
 
  PAW_PBE Fe_pv 02Aug2007               :
 energy of atom  1       EATOM=-2457.4239
 kinetic energy error for atom=    0.0062 (will be added to EATOM!!)
  PAW_PBE Pt 04Feb2005                  :
 energy of atom  2       EATOM= -729.1176
 kinetic energy error for atom=    0.0032 (will be added to EATOM!!)
 
 
 POSCAR: Fe9 Pt3
  positions in direct lattice
  velocities in cartesian coordinates


 exchange-correlation table for PE
   RHO(1)=    0.500       N(1)  =     2000
   RHO(2)=  100.500       N(2)  =     4000
 


--------------------------------------------------------------------------------------------------------


 ion  position               nearest neighbor table
   1  0.000  0.500  0.167-   4 2.56   4 2.56   5 2.56   5 2.56   7 2.57   7 2.57   7 2.57   7 2.57
                            10 2.60  10 2.60  11 2.60  11 2.60
   2  0.000  0.500  0.500-  11 2.56  11 2.56   8 2.57   8 2.57   8 2.57   8 2.57   6 2.58   6 2.58
                            12 2.58  12 2.58   5 2.60   5 2.60
   3  0.000  0.500  0.834-  10 2.56  10 2.56   9 2.57   9 2.57   9 2.57   9 2.57  12 2.58  12 2.58
                             6 2.58   6 2.58   4 2.60   4 2.60
   4  0.500  0.500  0.003-   1 2.56   7 2.56   7 2.56   1 2.56  10 2.57  10 2.57  10 2.57  10 2.57
                             9 2.60   3 2.60   9 2.60   3 2.60
   5  0.500  0.500  0.330-   1 2.56   7 2.56   7 2.56   1 2.56  11 2.57  11 2.57  11 2.57  11 2.57
                             8 2.60   2 2.60   8 2.60   2 2.60
   6  0.500  0.500  0.667-  12 2.57  12 2.57  12 2.57  12 2.57   8 2.58   2 2.58   2 2.58   8 2.58
                             9 2.58   3 2.58   9 2.58   3 2.58
   7  0.500  0.000  0.167-   4 2.56   4 2.56   5 2.56   5 2.56   1 2.57   1 2.57   1 2.57   1 2.57
                            10 2.60  10 2.60  11 2.60  11 2.60
   8  0.500  0.000  0.500-  11 2.56  11 2.56   2 2.57   2 2.57   2 2.57   2 2.57   6 2.58   6 2.58
                            12 2.58  12 2.58   5 2.60   5 2.60
   9  0.500  0.000  0.834-  10 2.56  10 2.56   3 2.57   3 2.57   3 2.57   3 2.57  12 2.58  12 2.58
                             6 2.58   6 2.58   4 2.60   4 2.60
  10  0.000  0.000  0.998-   3 2.56   9 2.56   3 2.56   9 2.56   4 2.57   4 2.57   4 2.57   4 2.57
                             1 2.60   7 2.60   7 2.60   1 2.60
  11  0.000  0.000  0.335-   2 2.56   8 2.56   2 2.56   8 2.56   5 2.57   5 2.57   5 2.57   5 2.57
                             1 2.60   7 2.60   7 2.60   1 2.60
  12  0.000  0.000  0.667-   6 2.57   6 2.57   6 2.57   6 2.57   2 2.58   8 2.58   8 2.58   2 2.58
                             3 2.58   3 2.58   9 2.58   9 2.58
 
  LATTYP: Found a simple tetragonal cell.
 ALAT       =     3.6315190218
 C/A-ratio  =     3.0276316199
  
  Lattice vectors:
  
 A1 = (   3.6315190218,   0.0000000000,   0.0000000000)
 A2 = (   0.0000000000,   3.6315190218,   0.0000000000)
 A3 = (   0.0000000000,   0.0000000000,  10.9949018187)


Analysis of symmetry for initial positions (statically):
=====================================================================
 Subroutine PRICEL returns:
 Original cell was already a primitive cell.
 

 Routine SETGRP: Setting up the symmetry group for a 
 simple tetragonal supercell.


 Subroutine GETGRP returns: Found  8 space group operations
 (whereof  8 operations were pure point group operations)
 out of a pool of 16 trial point group operations.


The static configuration has the point symmetry C_4v.


Analysis of symmetry for dynamics (positions and initial velocities):
=====================================================================
 Subroutine PRICEL returns:
 Original cell was already a primitive cell.
 

 Routine SETGRP: Setting up the symmetry group for a 
 simple tetragonal supercell.


 Subroutine GETGRP returns: Found  8 space group operations
 (whereof  8 operations were pure point group operations)
 out of a pool of 16 trial point group operations.


The dynamic configuration has the point symmetry C_4v.


Analysis of structural, dynamic, and magnetic symmetry:
=====================================================================
 Subroutine PRICEL returns:
 Original cell was already a primitive cell.
 

 Routine SETGRP: Setting up the symmetry group for a 
 simple tetragonal supercell.


 Subroutine GETGRP returns: Found  8 space group operations
 (whereof  8 operations were pure point group operations)
 out of a pool of 16 trial point group operations.


The overall configuration has the point symmetry C_4v.


 Subroutine INISYM returns: Found  8 space group operations
 (whereof  8 operations are pure point group operations),
 and found     1 'primitive' translations


----------------------------------------------------------------------------------------

                                     Primitive cell                                     

  volume of cell :     145.0000

  direct lattice vectors                    reciprocal lattice vectors
     3.631519022  0.000000000  0.000000000     0.275366863  0.000000000  0.000000000
     0.000000000  3.631519022  0.000000000     0.000000000  0.275366863  0.000000000
     0.000000000  0.000000000 10.994901819     0.000000000  0.000000000  0.090951244

  length of vectors
     3.631519022  3.631519022 10.994901819     0.275366863  0.275366863  0.090951244

  position of ions in fractional coordinates (direct lattice)
     0.000000000  0.500000000  0.166662448
     0.000000000  0.500000000  0.499565955
     0.000000000  0.500000000  0.833772608
     0.500000000  0.500000000  0.003094996
     0.500000000  0.500000000  0.330252151
     0.500000000  0.500000000  0.666649172
     0.500000000  0.000000000  0.166662448
     0.500000000  0.000000000  0.499565955
     0.500000000  0.000000000  0.833772608
     0.000000000  0.000000000  0.997909772
     0.000000000  0.000000000  0.335423547
     0.000000000  0.000000000  0.666668340

  ion indices of the primitive-cell ions
   primitive index   ion index
                 1           1
                 2           2
                 3           3
                 4           4
                 5           5
                 6           6
                 7           7
                 8           8
                 9           9
                10          10
                11          11
                12          12

----------------------------------------------------------------------------------------

 
 
 KPOINTS: pymatgen with grid density = 8800 / numb

Automatic generation of k-mesh.
 Grid dimensions read from file:
 generate k-points for:   13   13    4

 Generating k-lattice:

  Cartesian coordinates                     Fractional coordinates (reciprocal lattice)
     0.021182066  0.000000000  0.000000000     0.076923077  0.000000000  0.000000000
     0.000000000  0.021182066  0.000000000     0.000000000  0.076923077  0.000000000
     0.000000000  0.000000000  0.022737811     0.000000000  0.000000000  0.250000000

  Length of vectors
     0.021182066  0.021182066  0.022737811

  Shift w.r.t. Gamma in fractional coordinates (k-lattice)
     0.000000000  0.000000000  0.000000000

 
 Subroutine IBZKPT returns following result:
 ===========================================
 
 Found     84 irreducible k-points:
 
 Following reciprocal coordinates:
            Coordinates               Weight
  0.000000  0.000000  0.000000      1.000000
  0.076923  0.000000  0.000000      4.000000
  0.153846  0.000000  0.000000      4.000000
  0.230769  0.000000  0.000000      4.000000
  0.307692  0.000000  0.000000      4.000000
  0.384615  0.000000  0.000000      4.000000
  0.461538  0.000000  0.000000      4.000000
  0.076923  0.076923  0.000000      4.000000
  0.153846  0.076923  0.000000      8.000000
  0.230769  0.076923  0.000000      8.000000
  0.307692  0.076923  0.000000      8.000000
  0.384615  0.076923  0.000000      8.000000
  0.461538  0.076923  0.000000      8.000000
  0.153846  0.153846  0.000000      4.000000
  0.230769  0.153846  0.000000      8.000000
  0.307692  0.153846  0.000000      8.000000
  0.384615  0.153846  0.000000      8.000000
  0.461538  0.153846  0.000000      8.000000
  0.230769  0.230769  0.000000      4.000000
  0.307692  0.230769  0.000000      8.000000
  0.384615  0.230769  0.000000      8.000000
  0.461538  0.230769  0.000000      8.000000
  0.307692  0.307692  0.000000      4.000000
  0.384615  0.307692  0.000000      8.000000
  0.461538  0.307692  0.000000      8.000000
  0.384615  0.384615  0.000000      4.000000
  0.461538  0.384615  0.000000      8.000000
  0.461538  0.461538  0.000000      4.000000
  0.000000  0.000000  0.250000      2.000000
  0.076923  0.000000  0.250000      8.000000
  0.153846  0.000000  0.250000      8.000000
  0.230769  0.000000  0.250000      8.000000
  0.307692  0.000000  0.250000      8.000000
  0.384615  0.000000  0.250000      8.000000
  0.461538  0.000000  0.250000      8.000000
  0.076923  0.076923  0.250000      8.000000
  0.153846  0.076923  0.250000     16.000000
  0.230769  0.076923  0.250000     16.000000
  0.307692  0.076923  0.250000     16.000000
  0.384615  0.076923  0.250000     16.000000
  0.461538  0.076923  0.250000     16.000000
  0.153846  0.153846  0.250000      8.000000
  0.230769  0.153846  0.250000     16.000000
  0.307692  0.153846  0.250000     16.000000
  0.384615  0.153846  0.250000     16.000000
  0.461538  0.153846  0.250000     16.000000
  0.230769  0.230769  0.250000      8.000000
  0.307692  0.230769  0.250000     16.000000
  0.384615  0.230769  0.250000     16.000000
  0.461538  0.230769  0.250000     16.000000
  0.307692  0.307692  0.250000      8.000000
  0.384615  0.307692  0.250000     16.000000
  0.461538  0.307692  0.250000     16.000000
  0.384615  0.384615  0.250000      8.000000
  0.461538  0.384615  0.250000     16.000000
  0.461538  0.461538  0.250000      8.000000
  0.000000  0.000000  0.500000      1.000000
  0.076923  0.000000  0.500000      4.000000
  0.153846  0.000000  0.500000      4.000000
  0.230769  0.000000  0.500000      4.000000
  0.307692  0.000000  0.500000      4.000000
  0.384615  0.000000  0.500000      4.000000
  0.461538  0.000000  0.500000      4.000000
  0.076923  0.076923  0.500000      4.000000
  0.153846  0.076923  0.500000      8.000000
  0.230769  0.076923  0.500000      8.000000
  0.307692  0.076923  0.500000      8.000000
  0.384615  0.076923  0.500000      8.000000
  0.461538  0.076923  0.500000      8.000000
  0.153846  0.153846  0.500000      4.000000
  0.230769  0.153846  0.500000      8.000000
  0.307692  0.153846  0.500000      8.000000
  0.384615  0.153846  0.500000      8.000000
  0.461538  0.153846  0.500000      8.000000
  0.230769  0.230769  0.500000      4.000000
  0.307692  0.230769  0.500000      8.000000
  0.384615  0.230769  0.500000      8.000000
  0.461538  0.230769  0.500000      8.000000
  0.307692  0.307692  0.500000      4.000000
  0.384615  0.307692  0.500000      8.000000
  0.461538  0.307692  0.500000      8.000000
  0.384615  0.384615  0.500000      4.000000
  0.461538  0.384615  0.500000      8.000000
  0.461538  0.461538  0.500000      4.000000
 
 Following cartesian coordinates:
            Coordinates               Weight
  0.000000  0.000000  0.000000      1.000000
  0.021182  0.000000  0.000000      4.000000
  0.042364  0.000000  0.000000      4.000000
  0.063546  0.000000  0.000000      4.000000
  0.084728  0.000000  0.000000      4.000000
  0.105910  0.000000  0.000000      4.000000
  0.127092  0.000000  0.000000      4.000000
  0.021182  0.021182  0.000000      4.000000
  0.042364  0.021182  0.000000      8.000000
  0.063546  0.021182  0.000000      8.000000
  0.084728  0.021182  0.000000      8.000000
  0.105910  0.021182  0.000000      8.000000
  0.127092  0.021182  0.000000      8.000000
  0.042364  0.042364  0.000000      4.000000
  0.063546  0.042364  0.000000      8.000000
  0.084728  0.042364  0.000000      8.000000
  0.105910  0.042364  0.000000      8.000000
  0.127092  0.042364  0.000000      8.000000
  0.063546  0.063546  0.000000      4.000000
  0.084728  0.063546  0.000000      8.000000
  0.105910  0.063546  0.000000      8.000000
  0.127092  0.063546  0.000000      8.000000
  0.084728  0.084728  0.000000      4.000000
  0.105910  0.084728  0.000000      8.000000
  0.127092  0.084728  0.000000      8.000000
  0.105910  0.105910  0.000000      4.000000
  0.127092  0.105910  0.000000      8.000000
  0.127092  0.127092  0.000000      4.000000
  0.000000  0.000000  0.022738      2.000000
  0.021182  0.000000  0.022738      8.000000
  0.042364  0.000000  0.022738      8.000000
  0.063546  0.000000  0.022738      8.000000
  0.084728  0.000000  0.022738      8.000000
  0.105910  0.000000  0.022738      8.000000
  0.127092  0.000000  0.022738      8.000000
  0.021182  0.021182  0.022738      8.000000
  0.042364  0.021182  0.022738     16.000000
  0.063546  0.021182  0.022738     16.000000
  0.084728  0.021182  0.022738     16.000000
  0.105910  0.021182  0.022738     16.000000
  0.127092  0.021182  0.022738     16.000000
  0.042364  0.042364  0.022738      8.000000
  0.063546  0.042364  0.022738     16.000000
  0.084728  0.042364  0.022738     16.000000
  0.105910  0.042364  0.022738     16.000000
  0.127092  0.042364  0.022738     16.000000
  0.063546  0.063546  0.022738      8.000000
  0.084728  0.063546  0.022738     16.000000
  0.105910  0.063546  0.022738     16.000000
  0.127092  0.063546  0.022738     16.000000
  0.084728  0.084728  0.022738      8.000000
  0.105910  0.084728  0.022738     16.000000
  0.127092  0.084728  0.022738     16.000000
  0.105910  0.105910  0.022738      8.000000
  0.127092  0.105910  0.022738     16.000000
  0.127092  0.127092  0.022738      8.000000
  0.000000  0.000000  0.045476      1.000000
  0.021182  0.000000  0.045476      4.000000
  0.042364  0.000000  0.045476      4.000000
  0.063546  0.000000  0.045476      4.000000
  0.084728  0.000000  0.045476      4.000000
  0.105910  0.000000  0.045476      4.000000
  0.127092  0.000000  0.045476      4.000000
  0.021182  0.021182  0.045476      4.000000
  0.042364  0.021182  0.045476      8.000000
  0.063546  0.021182  0.045476      8.000000
  0.084728  0.021182  0.045476      8.000000
  0.105910  0.021182  0.045476      8.000000
  0.127092  0.021182  0.045476      8.000000
  0.042364  0.042364  0.045476      4.000000
  0.063546  0.042364  0.045476      8.000000
  0.084728  0.042364  0.045476      8.000000
  0.105910  0.042364  0.045476      8.000000
  0.127092  0.042364  0.045476      8.000000
  0.063546  0.063546  0.045476      4.000000
  0.084728  0.063546  0.045476      8.000000
  0.105910  0.063546  0.045476      8.000000
  0.127092  0.063546  0.045476      8.000000
  0.084728  0.084728  0.045476      4.000000
  0.105910  0.084728  0.045476      8.000000
  0.127092  0.084728  0.045476      8.000000
  0.105910  0.105910  0.045476      4.000000
  0.127092  0.105910  0.045476      8.000000
  0.127092  0.127092  0.045476      4.000000
 


--------------------------------------------------------------------------------------------------------




 Dimension of arrays:
   k-points           NKPTS =     84   k-points in BZ     NKDIM =     84   number of bands    NBANDS=     96
   number of dos      NEDOS =    301   number of ions     NIONS =     12
   non local maximal  LDIM  =      6   non local SUM 2l+1 LMDIM =     18
   total plane-waves  NPLWV =  65856
   max r-space proj   IRMAX =      1   max aug-charges    IRDMAX=  27705
   dimension x,y,z NGX =    28 NGY =   28 NGZ =   84
   dimension x,y,z NGXF=    56 NGYF=   56 NGZF=  168
   support grid    NGXF=    56 NGYF=   56 NGZF=  168
   ions per type =               9   3
   NGX,Y,Z   is equivalent  to a cutoff of  12.82, 12.82, 12.70 a.u.
   NGXF,Y,Z  is equivalent  to a cutoff of  25.64, 25.64, 25.40 a.u.

 SYSTEM =  unknown system                          
 POSCAR =  Fe9 Pt3                                 

 Startparameter for this run:
   NWRITE =      2    write-flag & timer
   PREC   = accura    normal or accurate (medium, high low for compatibility)
   ISTART =      0    job   : 0-new  1-cont  2-samecut
   ICHARG =      2    charge: 1-file 2-atom 10-const
   ISPIN  =      2    spin polarized calculation?
   LNONCOLLINEAR =      F non collinear calculations
   LSORBIT =      F    spin-orbit coupling
   INIWAV =      1    electr: 0-lowe 1-rand  2-diag
   LASPH  =      F    aspherical Exc in radial PAW
 Electronic Relaxation 1
   ENCUT  =  520.0 eV  38.22 Ry    6.18 a.u.   6.75  6.75 20.44*2*pi/ulx,y,z
   ENINI  =  520.0     initial cutoff
   ENAUG  =  578.3 eV  augmentation charge cutoff
   NELM   =    200;   NELMIN=  2; NELMDL=  0     # of ELM steps 
   EDIFF  = 0.1E-05   stopping-criterion for ELM
   LREAL  =      F    real-space projection
   NLSPLINE    = F    spline interpolate recip. space projectors
   LCOMPAT=      F    compatible to vasp.4.4
   GGA_COMPAT  = T    GGA compatible to vasp.4.4-vasp.4.6
   LMAXPAW     = -100 max onsite density
   LMAXMIX     =    2 max onsite mixed and CHGCAR
   VOSKOWN=      0    Vosko Wilk Nusair interpolation
   ROPT   =    0.00000   0.00000
 Ionic relaxation
   EDIFFG = -.1E-01   stopping-criterion for IOM
   NSW    =    100    number of steps for IOM
   NBLOCK =      1;   KBLOCK =    100    inner block; outer block 
   IBRION =      2    ionic relax: 0-MD 1-quasi-New 2-CG
   NFREE  =      1    steps in history (QN), initial steepest desc. (CG)
   ISIF   =      4    stress and relaxation
   IWAVPR =     11    prediction:  0-non 1-charg 2-wave 3-comb
   ISYM   =      2    0-nonsym 1-usesym 2-fastsym
   LCORR  =      T    Harris-Foulkes like correction to forces

   POTIM  = 0.5000    time-step for ionic-motion
   TEIN   =    0.0    initial temperature
   TEBEG  =    0.0;   TEEND  =   0.0 temperature during run
   SMASS  =  -3.00    Nose mass-parameter (am)
   estimated Nose-frequenzy (Omega)   =  0.10E-29 period in steps = 0.13E+47 mass=  -0.301E-27a.u.
   SCALEE = 1.0000    scale energy and forces
   NPACO  =    256;   APACO  = 10.0  distance and # of slots for P.C.
   PSTRESS=    0.0 pullay stress

  Mass of Ions in am
   POMASS =  55.85195.08
  Ionic Valenz
   ZVAL   =  14.00 10.00
  Atomic Wigner-Seitz radii
   RWIGS  =  -1.00 -1.00
  virtual crystal weights 
   VCA    =   1.00  1.00
   NELECT =     156.0000    total number of electrons
   NUPDOWN=      -1.0000    fix difference up-down

 DOS related values:
   EMIN   =  10.00;   EMAX   =-10.00  energy-range for DOS
   EFERMI =   0.00;   METHOD = LEGACY      
   ISMEAR =     1;   SIGMA  =   0.20  broadening in eV -4-tet -1-fermi 0-gaus

 Electronic relaxation 2 (details)
   IALGO  =     58    algorithm
   LDIAG  =      T    sub-space diagonalisation (order eigenvalues)
   LSUBROT=      F    optimize rotation matrix (better conditioning)
   TURBO    =      0    0=normal 1=particle mesh
   IRESTART =      0    0=no restart 2=restart with 2 vectors
   NREBOOT  =      0    no. of reboots
   NMIN     =      0    reboot dimension
   EREF     =   0.00    reference energy to select bands
   IMIX   =      4    mixing-type and parameters
     AMIX     =   0.40;   BMIX     =  1.00
     AMIX_MAG =   1.60;   BMIX_MAG =  1.00
     AMIN     =   0.10
     WC   =   100.;   INIMIX=   1;  MIXPRE=   1;  MAXMIX= -45

 Intra band minimization:
   WEIMIN = 0.0010     energy-eigenvalue tresh-hold
   EBREAK =  0.26E-08  absolut break condition
   DEPER  =   0.30     relativ break condition  

   TIME   =   0.40     timestep for ELM

  volume/ion in A,a.u.               =      12.08        81.54
  Fermi-wavevector in a.u.,A,eV,Ry     =   1.677492  3.170000 38.286498  2.813978
  Thomas-Fermi vector in A             =   2.761748
 
 Write flags
   LWAVE        =      F    write WAVECAR
   LDOWNSAMPLE  =      F    k-point downsampling of WAVECAR
   LCHARG       =      T    write CHGCAR
   LVTOT        =      F    write LOCPOT, total local potential
   LVHAR        =      F    write LOCPOT, Hartree potential only
   WRT_POTENTIAL= false  ! write potential to hdf5 file
   LELF         =      F    write electronic localiz. function (ELF)
   LORBIT       =     11    0 simple, 1 ext, 2 COOP (PROOUT), +10 PAW based schemes


 Dipole corrections
   LMONO      =      F    monopole corrections only (constant potential shift)
   LDIPOL     =      F    correct potential (dipole corrections)
   IDIPOL     =      0    1-x, 2-y, 3-z, 4-all directions 
   EPSILON    =  1.0000000 bulk dielectric constant
   LVACPOTAV  =      F  vacuum potentials using an averaging scheme for the charge density
   VACPOTFLAT =  0.1000000 required flatness to determine vacuum potential
 Exchange correlation treatment:
   GGA     = PE    functional components
   XC_C    = 1    coefficients multiplying the functional components
   LIBXC   =     F    Libxc                    
   VOSKOWN =     0    Vosko Wilk Nusair interpolation
   LHFCALC =     F    Hartree Fock is set to
   LHFONE  =     F    Hartree Fock one center treatment
   AEXX    =    0.0000 exact exchange contribution

 Parameters of functionals:
   PE:
     No parameter
 
 Van der Waals corrections
   IVDW    =     0    specifies the selected vdW correction

 Linear response parameters
   LEPSILON=     F    determine dielectric tensor
   LRPA    =     F    only Hartree local field effects (RPA)
   LNABLA  =     F    use nabla operator in PAW spheres
   LVEL    =     F    velocity operator in full k-point grid
   CSHIFT  =0.1000    complex shift for real part using Kramers Kronig
   OMEGAMAX=  -1.0    maximum frequency
   DEG_THRESHOLD= 0.2000000E-02 threshold for treating states as degnerate
   RTIME   =   -0.100 relaxation time in fs
  (WPLASMAI=    0.000 imaginary part of plasma frequency in eV, 0.658/RTIME)
   DFIELD  = 0.0000000 0.0000000 0.0000000 field for delta impulse in time
 
  Optional k-point grid parameters
   LKPOINTS_OPT  =     F    use optional k-point grid
   KPOINTS_OPT_MODE=     1    mode for optional k-point grid
 
 Orbital magnetization related:
   ORBITALMAG=     F  switch on orbital magnetization
   LCHIMAG   =     F  perturbation theory with respect to B field
   DQ        =  0.001000  dq finite difference perturbation B field
   LLRAUG    =     F  two centre corrections for induced B field
   LBONE     =     F  B-component reconstruction in AE one-centre
   LVGVCALC  =     T  calculate vGv susceptibility
   LVGVAPPL  =     F  apply vGv susceptibility instead of pGv for G=0

 Random number generation:
   RANDOM_GENERATOR = DEFAULT
   PCG_SEED         = not used


--------------------------------------------------------------------------------------------------------


 conjugate gradient relaxation of ions
 charge density and potential will be updated during run
 spin polarized calculation
 Conjugate gradient for all bands (Freysoldt, et al. PRB 79, 241103 (2009))
 preconditioned conjugated gradient                                        
 perform sub-space diagonalisation
    before iterative eigenvector-optimisation
 modified Broyden-mixing scheme, WC =      100.0
 initial mixing is a Kerker type mixing with AMIX =  0.4000 and BMIX =      1.0000
 Hartree-type preconditioning will be used
 using additional bands           18
 reciprocal scheme for non local part
 use partial core corrections
 no Harris-corrections to forces 
 use gradient corrections 
 use of overlap-Matrix (Vanderbilt PP)
 Methfessel and Paxton  Order N= 1 SIGMA  =   0.20


--------------------------------------------------------------------------------------------------------


  energy-cutoff  :      520.00
  volume of cell :      145.00
      direct lattice vectors                 reciprocal lattice vectors
     3.631519022  0.000000000  0.000000000     0.275366863  0.000000000  0.000000000
     0.000000000  3.631519022  0.000000000     0.000000000  0.275366863  0.000000000
     0.000000000  0.000000000 10.994901819     0.000000000  0.000000000  0.090951244

  length of vectors
     3.631519022  3.631519022 10.994901819     0.275366863  0.275366863  0.090951244


 
 k-points in units of 2pi/SCALE and weight: pymatgen with grid density = 8800 / numb
   0.00000000  0.00000000  0.00000000       0.001
   0.02118207  0.00000000  0.00000000       0.006
   0.04236413  0.00000000  0.00000000       0.006
   0.06354620  0.00000000  0.00000000       0.006
   0.08472827  0.00000000  0.00000000       0.006
   0.10591033  0.00000000  0.00000000       0.006
   0.12709240  0.00000000  0.00000000       0.006
   0.02118207  0.02118207  0.00000000       0.006
   0.04236413  0.02118207  0.00000000       0.012
   0.06354620  0.02118207  0.00000000       0.012
   0.08472827  0.02118207  0.00000000       0.012
   0.10591033  0.02118207  0.00000000       0.012
   0.12709240  0.02118207  0.00000000       0.012
   0.04236413  0.04236413  0.00000000       0.006
   0.06354620  0.04236413  0.00000000       0.012
   0.08472827  0.04236413  0.00000000       0.012
   0.10591033  0.04236413  0.00000000       0.012
   0.12709240  0.04236413  0.00000000       0.012
   0.06354620  0.06354620  0.00000000       0.006
   0.08472827  0.06354620  0.00000000       0.012
   0.10591033  0.06354620  0.00000000       0.012
   0.12709240  0.06354620  0.00000000       0.012
   0.08472827  0.08472827  0.00000000       0.006
   0.10591033  0.08472827  0.00000000       0.012
   0.12709240  0.08472827  0.00000000       0.012
   0.10591033  0.10591033  0.00000000       0.006
   0.12709240  0.10591033  0.00000000       0.012
   0.12709240  0.12709240  0.00000000       0.006
   0.00000000  0.00000000  0.02273781       0.003
   0.02118207  0.00000000  0.02273781       0.012
   0.04236413  0.00000000  0.02273781       0.012
   0.06354620  0.00000000  0.02273781       0.012
   0.08472827  0.00000000  0.02273781       0.012
   0.10591033  0.00000000  0.02273781       0.012
   0.12709240  0.00000000  0.02273781       0.012
   0.02118207  0.02118207  0.02273781       0.012
   0.04236413  0.02118207  0.02273781       0.024
   0.06354620  0.02118207  0.02273781       0.024
   0.08472827  0.02118207  0.02273781       0.024
   0.10591033  0.02118207  0.02273781       0.024
   0.12709240  0.02118207  0.02273781       0.024
   0.04236413  0.04236413  0.02273781       0.012
   0.06354620  0.04236413  0.02273781       0.024
   0.08472827  0.04236413  0.02273781       0.024
   0.10591033  0.04236413  0.02273781       0.024
   0.12709240  0.04236413  0.02273781       0.024
   0.06354620  0.06354620  0.02273781       0.012
   0.08472827  0.06354620  0.02273781       0.024
   0.10591033  0.06354620  0.02273781       0.024
   0.12709240  0.06354620  0.02273781       0.024
   0.08472827  0.08472827  0.02273781       0.012
   0.10591033  0.08472827  0.02273781       0.024
   0.12709240  0.08472827  0.02273781       0.024
   0.10591033  0.10591033  0.02273781       0.012
   0.12709240  0.10591033  0.02273781       0.024
   0.12709240  0.12709240  0.02273781       0.012
   0.00000000  0.00000000  0.04547562       0.001
   0.02118207  0.00000000  0.04547562       0.006
   0.04236413  0.00000000  0.04547562       0.006
   0.06354620  0.00000000  0.04547562       0.006
   0.08472827  0.00000000  0.04547562       0.006
   0.10591033  0.00000000  0.04547562       0.006
   0.12709240  0.00000000  0.04547562       0.006
   0.02118207  0.02118207  0.04547562       0.006
   0.04236413  0.02118207  0.04547562       0.012
   0.06354620  0.02118207  0.04547562       0.012
   0.08472827  0.02118207  0.04547562       0.012
   0.10591033  0.02118207  0.04547562       0.012
   0.12709240  0.02118207  0.04547562       0.012
   0.04236413  0.04236413  0.04547562       0.006
   0.06354620  0.04236413  0.04547562       0.012
   0.08472827  0.04236413  0.04547562       0.012
   0.10591033  0.04236413  0.04547562       0.012
   0.12709240  0.04236413  0.04547562       0.012
   0.06354620  0.06354620  0.04547562       0.006
   0.08472827  0.06354620  0.04547562       0.012
   0.10591033  0.06354620  0.04547562       0.012
   0.12709240  0.06354620  0.04547562       0.012
   0.08472827  0.08472827  0.04547562       0.006
   0.10591033  0.08472827  0.04547562       0.012
   0.12709240  0.08472827  0.04547562       0.012
   0.10591033  0.10591033  0.04547562       0.006
   0.12709240  0.10591033  0.04547562       0.012
   0.12709240  0.12709240  0.04547562       0.006
 
 k-points in reciprocal lattice and weights: pymatgen with grid density = 8800 / numb
   0.00000000  0.00000000  0.00000000       0.001
   0.07692308  0.00000000  0.00000000       0.006
   0.15384615  0.00000000  0.00000000       0.006
   0.23076923  0.00000000  0.00000000       0.006
   0.30769231  0.00000000  0.00000000       0.006
   0.38461538  0.00000000  0.00000000       0.006
   0.46153846  0.00000000  0.00000000       0.006
   0.07692308  0.07692308  0.00000000       0.006
   0.15384615  0.07692308  0.00000000       0.012
   0.23076923  0.07692308  0.00000000       0.012
   0.30769231  0.07692308  0.00000000       0.012
   0.38461538  0.07692308  0.00000000       0.012
   0.46153846  0.07692308  0.00000000       0.012
   0.15384615  0.15384615  0.00000000       0.006
   0.23076923  0.15384615  0.00000000       0.012
   0.30769231  0.15384615  0.00000000       0.012
   0.38461538  0.15384615  0.00000000       0.012
   0.46153846  0.15384615  0.00000000       0.012
   0.23076923  0.23076923  0.00000000       0.006
   0.30769231  0.23076923  0.00000000       0.012
   0.38461538  0.23076923  0.00000000       0.012
   0.46153846  0.23076923  0.00000000       0.012
   0.30769231  0.30769231  0.00000000       0.006
   0.38461538  0.30769231  0.00000000       0.012
   0.46153846  0.30769231  0.00000000       0.012
   0.38461538  0.38461538  0.00000000       0.006
   0.46153846  0.38461538  0.00000000       0.012
   0.46153846  0.46153846  0.00000000       0.006
   0.00000000  0.00000000  0.25000000       0.003
   0.07692308  0.00000000  0.25000000       0.012
   0.15384615  0.00000000  0.25000000       0.012
   0.23076923  0.00000000  0.25000000       0.012
   0.30769231  0.00000000  0.25000000       0.012
   0.38461538  0.00000000  0.25000000       0.012
   0.46153846  0.00000000  0.25000000       0.012
   0.07692308  0.07692308  0.25000000       0.012
   0.15384615  0.07692308  0.25000000       0.024
   0.23076923  0.07692308  0.25000000       0.024
   0.30769231  0.07692308  0.25000000       0.024
   0.38461538  0.07692308  0.25000000       0.024
   0.46153846  0.07692308  0.25000000       0.024
   0.15384615  0.15384615  0.25000000       0.012
   0.23076923  0.15384615  0.25000000       0.024
   0.30769231  0.15384615  0.25000000       0.024
   0.38461538  0.15384615  0.25000000       0.024
   0.46153846  0.15384615  0.25000000       0.024
   0.23076923  0.23076923  0.25000000       0.012
   0.30769231  0.23076923  0.25000000       0.024
   0.38461538  0.23076923  0.25000000       0.024
   0.46153846  0.23076923  0.25000000       0.024
   0.30769231  0.30769231  0.25000000       0.012
   0.38461538  0.30769231  0.25000000       0.024
   0.46153846  0.30769231  0.25000000       0.024
   0.38461538  0.38461538  0.25000000       0.012
   0.46153846  0.38461538  0.25000000       0.024
   0.46153846  0.46153846  0.25000000       0.012
   0.00000000  0.00000000  0.50000000       0.001
   0.07692308  0.00000000  0.50000000       0.006
   0.15384615  0.00000000  0.50000000       0.006
   0.23076923  0.00000000  0.50000000       0.006
   0.30769231  0.00000000  0.50000000       0.006
   0.38461538  0.00000000  0.50000000       0.006
   0.46153846  0.00000000  0.50000000       0.006
   0.07692308  0.07692308  0.50000000       0.006
   0.15384615  0.07692308  0.50000000       0.012
   0.23076923  0.07692308  0.50000000       0.012
   0.30769231  0.07692308  0.50000000       0.012
   0.38461538  0.07692308  0.50000000       0.012
   0.46153846  0.07692308  0.50000000       0.012
   0.15384615  0.15384615  0.50000000       0.006
   0.23076923  0.15384615  0.50000000       0.012
   0.30769231  0.15384615  0.50000000       0.012
   0.38461538  0.15384615  0.50000000       0.012
   0.46153846  0.15384615  0.50000000       0.012
   0.23076923  0.23076923  0.50000000       0.006
   0.30769231  0.23076923  0.50000000       0.012
   0.38461538  0.23076923  0.50000000       0.012
   0.46153846  0.23076923  0.50000000       0.012
   0.30769231  0.30769231  0.50000000       0.006
   0.38461538  0.30769231  0.50000000       0.012
   0.46153846  0.30769231  0.50000000       0.012
   0.38461538  0.38461538  0.50000000       0.006
   0.46153846  0.38461538  0.50000000       0.012
   0.46153846  0.46153846  0.50000000       0.006
 
 position of ions in fractional coordinates (direct lattice) 
   0.00000000  0.50000000  0.16666245
   0.00000000  0.50000000  0.49956595
   0.00000000  0.50000000  0.83377261
   0.50000000  0.50000000  0.00309500
   0.50000000  0.50000000  0.33025215
   0.50000000  0.50000000  0.66664917
   0.50000000  0.00000000  0.16666245
   0.50000000  0.00000000  0.49956595
   0.50000000  0.00000000  0.83377261
   0.00000000  0.00000000  0.99790977
   0.00000000  0.00000000  0.33542355
   0.00000000  0.00000000  0.66666834
 
 position of ions in cartesian coordinates  (Angst):
   0.00000000  1.81575951  1.83243725
   0.00000000  1.81575951  5.49267863
   0.00000000  1.81575951  9.16724797
   1.81575951  1.81575951  0.03402917
   1.81575951  1.81575951  3.63108998
   1.81575951  1.81575951  7.32974219
   1.81575951  0.00000000  1.83243725
   1.81575951  0.00000000  5.49267863
   1.81575951  0.00000000  9.16724797
   0.00000000  0.00000000 10.97191997
   0.00000000  0.00000000  3.68794896
   0.00000000  0.00000000  7.32995294
 


--------------------------------------------------------------------------------------------------------


 k-point     1 :   0.0000 0.0000 0.0000  plane waves:    3945
 k-point     2 :   0.0769 0.0000 0.0000  plane waves:    3929
 k-point     3 :   0.1538 0.0000 0.0000  plane waves:    3915
 k-point     4 :   0.2308 0.0000 0.0000  plane waves:    3915
 k-point     5 :   0.3077 0.0000 0.0000  plane waves:    3910
 k-point     6 :   0.3846 0.0000 0.0000  plane waves:    3896
 k-point     7 :   0.4615 0.0000 0.0000  plane waves:    3896
 k-point     8 :   0.0769 0.0769 0.0000  plane waves:    3925
 k-point     9 :   0.1538 0.0769 0.0000  plane waves:    3916
 k-point    10 :   0.2308 0.0769 0.0000  plane waves:    3916
 k-point    11 :   0.3077 0.0769 0.0000  plane waves:    3902
 k-point    12 :   0.3846 0.0769 0.0000  plane waves:    3900
 k-point    13 :   0.4615 0.0769 0.0000  plane waves:    3886
 k-point    14 :   0.1538 0.1538 0.0000  plane waves:    3913
 k-point    15 :   0.2308 0.1538 0.0000  plane waves:    3904
 k-point    16 :   0.3077 0.1538 0.0000  plane waves:    3907
 k-point    17 :   0.3846 0.1538 0.0000  plane waves:    3911
 k-point    18 :   0.4615 0.1538 0.0000  plane waves:    3911
 k-point    19 :   0.2308 0.2308 0.0000  plane waves:    3880
 k-point    20 :   0.3077 0.2308 0.0000  plane waves:    3884
 k-point    21 :   0.3846 0.2308 0.0000  plane waves:    3892
 k-point    22 :   0.4615 0.2308 0.0000  plane waves:    3902
 k-point    23 :   0.3077 0.3077 0.0000  plane waves:    3896
 k-point    24 :   0.3846 0.3077 0.0000  plane waves:    3906
 k-point    25 :   0.4615 0.3077 0.0000  plane waves:    3915
 k-point    26 :   0.3846 0.3846 0.0000  plane waves:    3912
 k-point    27 :   0.4615 0.3846 0.0000  plane waves:    3912
 k-point    28 :   0.4615 0.4615 0.0000  plane waves:    3908
 k-point    29 :   0.0000 0.0000 0.2500  plane waves:    3929
 k-point    30 :   0.0769 0.0000 0.2500  plane waves:    3910
 k-point    31 :   0.1538 0.0000 0.2500  plane waves:    3906
 k-point    32 :   0.2308 0.0000 0.2500  plane waves:    3903
 k-point    33 :   0.3077 0.0000 0.2500  plane waves:    3906
 k-point    34 :   0.3846 0.0000 0.2500  plane waves:    3906
 k-point    35 :   0.4615 0.0000 0.2500  plane waves:    3886
 k-point    36 :   0.0769 0.0769 0.2500  plane waves:    3908
 k-point    37 :   0.1538 0.0769 0.2500  plane waves:    3919
 k-point    38 :   0.2308 0.0769 0.2500  plane waves:    3903
 k-point    39 :   0.3077 0.0769 0.2500  plane waves:    3906
 k-point    40 :   0.3846 0.0769 0.2500  plane waves:    3900
 k-point    41 :   0.4615 0.0769 0.2500  plane waves:    3888
 k-point    42 :   0.1538 0.1538 0.2500  plane waves:    3899
 k-point    43 :   0.2308 0.1538 0.2500  plane waves:    3897
 k-point    44 :   0.3077 0.1538 0.2500  plane waves:    3898
 k-point    45 :   0.3846 0.1538 0.2500  plane waves:    3902
 k-point    46 :   0.4615 0.1538 0.2500  plane waves:    3893
 k-point    47 :   0.2308 0.2308 0.2500  plane waves:    3900
 k-point    48 :   0.3077 0.2308 0.2500  plane waves:    3899
 k-point    49 :   0.3846 0.2308 0.2500  plane waves:    3896
 k-point    50 :   0.4615 0.2308 0.2500  plane waves:    3902
 k-point    51 :   0.3077 0.3077 0.2500  plane waves:    3895
 k-point    52 :   0.3846 0.3077 0.2500  plane waves:    3903
 k-point    53 :   0.4615 0.3077 0.2500  plane waves:    3905
 k-point    54 :   0.3846 0.3846 0.2500  plane waves:    3912
 k-point    55 :   0.4615 0.3846 0.2500  plane waves:    3931
 k-point    56 :   0.4615 0.4615 0.2500  plane waves:    3939
 k-point    57 :   0.0000 0.0000 0.5000  plane waves:    3872
 k-point    58 :   0.0769 0.0000 0.5000  plane waves:    3892
 k-point    59 :   0.1538 0.0000 0.5000  plane waves:    3908
 k-point    60 :   0.2308 0.0000 0.5000  plane waves:    3910
 k-point    61 :   0.3077 0.0000 0.5000  plane waves:    3912
 k-point    62 :   0.3846 0.0000 0.5000  plane waves:    3912
 k-point    63 :   0.4615 0.0000 0.5000  plane waves:    3884
 k-point    64 :   0.0769 0.0769 0.5000  plane waves:    3888
 k-point    65 :   0.1538 0.0769 0.5000  plane waves:    3900
 k-point    66 :   0.2308 0.0769 0.5000  plane waves:    3900
 k-point    67 :   0.3077 0.0769 0.5000  plane waves:    3904
 k-point    68 :   0.3846 0.0769 0.5000  plane waves:    3912
 k-point    69 :   0.4615 0.0769 0.5000  plane waves:    3900
 k-point    70 :   0.1538 0.1538 0.5000  plane waves:    3904
 k-point    71 :   0.2308 0.1538 0.5000  plane waves:    3912
 k-point    72 :   0.3077 0.1538 0.5000  plane waves:    3902
 k-point    73 :   0.3846 0.1538 0.5000  plane waves:    3890
 k-point    74 :   0.4615 0.1538 0.5000  plane waves:    3888
 k-point    75 :   0.2308 0.2308 0.5000  plane waves:    3908
 k-point    76 :   0.3077 0.2308 0.5000  plane waves:    3894
 k-point    77 :   0.3846 0.2308 0.5000  plane waves:    3898
 k-point    78 :   0.4615 0.2308 0.5000  plane waves:    3906
 k-point    79 :   0.3077 0.3077 0.5000  plane waves:    3914
 k-point    80 :   0.3846 0.3077 0.5000  plane waves:    3902
 k-point    81 :   0.4615 0.3077 0.5000  plane waves:    3918
 k-point    82 :   0.3846 0.3846 0.5000  plane waves:    3912
 k-point    83 :   0.4615 0.3846 0.5000  plane waves:    3924
 k-point    84 :   0.4615 0.4615 0.5000  plane waves:    3924

 maximum and minimum number of plane-waves per node :      3945     3872

 maximum number of plane-waves:      3945
 maximum index in each direction: 
   IXMAX=    6   IYMAX=    6   IZMAX=   20
   IXMIN=   -7   IYMIN=   -7   IZMIN=  -20


 serial   3D FFT for wavefunctions
 parallel 3D FFT for charge:
    minimum data exchange during FFTs selected (reduces bandwidth)


 total amount of memory used by VASP MPI-rank0   236241. kBytes
=======================================================================

   base      :      30000. kBytes
   nonl-proj :      96755. kBytes
   fftplans  :        888. kBytes
   grid      :       6813. kBytes
   one-center:        373. kBytes
   wavefun   :     101412. kBytes
 
     INWAV:  cpu time      0.0001: real time      0.0002
 Broyden mixing: mesh for mixing (old mesh)
   NGX = 13   NGY = 13   NGZ = 41
  (NGX  = 56   NGY  = 56   NGZ  =168)
  gives a total of   6929 points

 initial charge density was supplied:
 charge density of overlapping atoms calculated
 number of electron     156.0000000 magnetization       2.0800000
 charge density for first step will be calculated from the start-wavefunctions


--------------------------------------------------------------------------------------------------------


 Maximum index for augmentation-charges         1081 (set IRDMAX)


--------------------------------------------------------------------------------------------------------


 First call to EWALD:  gamma=   0.337
 Maximum number of real-space cells 4x 4x 2
 Maximum number of reciprocal cells 2x 2x 5

    FEWALD:  cpu time      0.0019: real time      0.0020


--------------------------------------- Ionic step        1  -------------------------------------------




--------------------------------------- Iteration      1(   1)  ---------------------------------------


    POTLOK:  cpu time      0.0334: real time      0.0341
    SETDIJ:  cpu time      0.0073: real time      0.0074
    TRIAL :  cpu time      4.2519: real time      4.2844
    CORREC:  cpu time      0.0036: real time      0.0036
    --------------------------------------------
      LOOP:  cpu time      4.3478: real time      4.4162

 eigenvalue-minimisations  : 32256
 total energy-change (2. order) : 0.1736999E+04  (-0.9346673E+04)
 number of electron     156.0000000 magnetization       2.0800000
 augmentation part      156.0000000 magnetization       2.0800000

 Free energy of the ion-electron system (eV)
  ---------------------------------------------------
  alpha Z        PSCENC =      1173.72503148
  Ewald energy   TEWEN  =    -18537.26679148
  -Hartree energ DENC   =     -5769.82841606
  -exchange      EXHF   =         0.00000000
  -V(xc)+E(xc)   XCENC  =       659.07273036
  PAW double counting   =     20095.35847942   -20819.41566654
  entropy T*S    EENTRO =         0.00356212
  eigenvalues    EBANDS =       631.24673863
  atomic energy  EATOM  =     24304.10294433
  ---------------------------------------------------
  free energy    TOTEN  =      1736.99861224 eV

  energy without entropy =     1736.99505012  energy(sigma->0) =     1736.99742487


--------------------------------------------------------------------------------------------------------




--------------------------------------- Iteration      1(   2)  ---------------------------------------


    TRIAL :  cpu time      4.1658: real time      4.1953
    CORREC:  cpu time      0.0024: real time      0.0024
    --------------------------------------------
      LOOP:  cpu time      4.1767: real time      4.2207

 eigenvalue-minimisations  : 32448
 total energy-change (2. order) :-0.1729171E+04  (-0.1697887E+04)
 number of electron     156.0000000 magnetization       2.0800000
 augmentation part      156.0000000 magnetization       2.0800000

 Free energy of the ion-electron system (eV)
  ---------------------------------------------------
  alpha Z        PSCENC =      1173.72503148
  Ewald energy   TEWEN  =    -18537.26679148
  -Hartree energ DENC   =     -5769.82841606
  -exchange      EXHF   =         0.00000000
  -V(xc)+E(xc)   XCENC  =       659.07273036
  PAW double counting   =     20095.35847942   -20819.41566654
  entropy T*S    EENTRO =         0.00108298
  eigenvalues    EBANDS =     -1097.92133598
  atomic energy  EATOM  =     24304.10294433
  ---------------------------------------------------
  free energy    TOTEN  =         7.82805850 eV

  energy without entropy =        7.82697552  energy(sigma->0) =        7.82769751


--------------------------------------------------------------------------------------------------------




--------------------------------------- Iteration      1(   3)  ---------------------------------------


    TRIAL :  cpu time      5.2206: real time      5.2561
    CORREC:  cpu time      0.0024: real time      0.0024
    --------------------------------------------
      LOOP:  cpu time      5.2324: real time      5.2810

 eigenvalue-minimisations  : 39456
 total energy-change (2. order) :-0.1106040E+03  (-0.1094247E+03)
 number of electron     156.0000000 magnetization       2.0800000
 augmentation part      156.0000000 magnetization       2.0800000

 Free energy of the ion-electron system (eV)
  ---------------------------------------------------
  alpha Z        PSCENC =      1173.72503148
  Ewald energy   TEWEN  =    -18537.26679148
  -Hartree energ DENC   =     -5769.82841606
  -exchange      EXHF   =         0.00000000
  -V(xc)+E(xc)   XCENC  =       659.07273036
  PAW double counting   =     20095.35847942   -20819.41566654
  entropy T*S    EENTRO =         0.01055634
  eigenvalues    EBANDS =     -1208.53476550
  atomic energy  EATOM  =     24304.10294433
  ---------------------------------------------------
  free energy    TOTEN  =      -102.77589767 eV

  energy without entropy =     -102.78645401  energy(sigma->0) =     -102.77941645


--------------------------------------------------------------------------------------------------------




--------------------------------------- Iteration      1(   4)  ---------------------------------------


    TRIAL :  cpu time      4.4268: real time      4.4576
    CORREC:  cpu time      0.0023: real time      0.0023
    --------------------------------------------
      LOOP:  cpu time      4.4383: real time      4.4817

 eigenvalue-minimisations  : 32768
 total energy-change (2. order) :-0.2267527E+01  (-0.2265434E+01)
 number of electron     156.0000000 magnetization       2.0800000
 augmentation part      156.0000000 magnetization       2.0800000

 Free energy of the ion-electron system (eV)
  ---------------------------------------------------
  alpha Z        PSCENC =      1173.72503148
  Ewald energy   TEWEN  =    -18537.26679148
  -Hartree energ DENC   =     -5769.82841606
  -exchange      EXHF   =         0.00000000
  -V(xc)+E(xc)   XCENC  =       659.07273036
  PAW double counting   =     20095.35847942   -20819.41566654
  entropy T*S    EENTRO =         0.01128956
  eigenvalues    EBANDS =     -1210.80302600
  atomic energy  EATOM  =     24304.10294433
  ---------------------------------------------------
  free energy    TOTEN  =      -105.04342495 eV

  energy without entropy =     -105.05471451  energy(sigma->0) =     -105.04718813


--------------------------------------------------------------------------------------------------------




--------------------------------------- Iteration      1(   5)  ---------------------------------------


    TRIAL :  cpu time      5.5792: real time      5.6162
    CORREC:  cpu time      0.0024: real time      0.0025
    CHARGE:  cpu time      0.1594: real time      0.1609
    --------------------------------------------
      LOOP:  cpu time      5.7490: real time      5.8016

 eigenvalue-minimisations  : 41056
 total energy-change (2. order) :-0.4984854E-01  (-0.4984295E-01)
 number of electron     155.9999806 magnetization       1.6214520
 augmentation part       79.2546460 magnetization       1.1884030

 Free energy of the ion-electron system (eV)
  ---------------------------------------------------
  alpha Z        PSCENC =      1173.72503148
  Ewald energy   TEWEN  =    -18537.26679148
  -Hartree energ DENC   =     -5769.82841606
  -exchange      EXHF   =         0.00000000
  -V(xc)+E(xc)   XCENC  =       659.07273036
  PAW double counting   =     20095.35847942   -20819.41566654
  entropy T*S    EENTRO =         0.01132493
  eigenvalues    EBANDS =     -1210.85290991
  atomic energy  EATOM  =     24304.10294433
  ---------------------------------------------------
  free energy    TOTEN  =      -105.09327349 eV

  energy without entropy =     -105.10459842  energy(sigma->0) =     -105.09704846


--------------------------------------------------------------------------------------------------------




--------------------------------------- Iteration      1(   6)  ---------------------------------------


    POTLOK:  cpu time      0.0223: real time      0.0225
    SETDIJ:  cpu time      0.0077: real time      0.0077
    TRIAL :  cpu time      1.8902: real time      1.9094
    CORREC:  cpu time      0.7643: real time      0.7725
    CHARGE:  cpu time      0.1522: real time      0.1529
    --------------------------------------------
      LOOP:  cpu time      2.8444: real time      2.8873

 eigenvalue-minimisations  :     0
 total energy-change (2. order) : 0.4883687E+02  (-0.2507956E+02)
 number of electron     155.9999800 magnetization       1.6864996
 augmentation part       82.4262151 magnetization       1.3061412

 Free energy of the ion-electron system (eV)
  ---------------------------------------------------
  alpha Z        PSCENC =      1173.72503148
  Ewald energy   TEWEN  =    -18537.26679148
  -Hartree energ DENC   =     -4706.65574889
  -exchange      EXHF   =         0.00000000
  -V(xc)+E(xc)   XCENC  =       613.83171635
  PAW double counting   =     21748.34812677   -22418.67956832
  entropy T*S    EENTRO =         0.01587823
  eigenvalues    EBANDS =     -2233.67344310
  atomic energy  EATOM  =     24304.10294433
  ---------------------------------------------------
  free energy    TOTEN  =       -56.25640792 eV

  energy without entropy =      -56.27228615  energy(sigma->0) =      -56.26170066


--------------------------------------------------------------------------------------------------------




--------------------------------------- Iteration      1(   7)  ---------------------------------------


    POTLOK:  cpu time      0.0215: real time      0.0217
    SETDIJ:  cpu time      0.0078: real time      0.0079
    TRIAL :  cpu time      1.8765: real time      1.8953
    CORREC:  cpu time      0.8838: real time      0.8926
    CHARGE:  cpu time      0.1503: real time      0.1511
    --------------------------------------------
      LOOP:  cpu time      2.9481: real time      2.9926

 eigenvalue-minimisations  :     0
 total energy-change (2. order) :-0.2735069E+02  (-0.4162022E+01)
 number of electron     155.9999798 magnetization       1.7312276
 augmentation part       83.3690578 magnetization       1.2825822

 Free energy of the ion-electron system (eV)
  ---------------------------------------------------
  alpha Z        PSCENC =      1173.72503148
  Ewald energy   TEWEN  =    -18537.26679148
  -Hartree energ DENC   =     -5123.21572231
  -exchange      EXHF   =         0.00000000
  -V(xc)+E(xc)   XCENC  =       631.22859397
  PAW double counting   =     22128.39058398   -22875.70076529
  entropy T*S    EENTRO =         0.01344259
  eigenvalues    EBANDS =     -1784.88685517
  atomic energy  EATOM  =     24304.10294433
  ---------------------------------------------------
  free energy    TOTEN  =       -83.60710227 eV

  energy without entropy =      -83.62054486  energy(sigma->0) =      -83.61158313


--------------------------------------------------------------------------------------------------------




--------------------------------------- Iteration      1(   8)  ---------------------------------------


    POTLOK:  cpu time      0.0215: real time      0.0217
    SETDIJ:  cpu time      0.0081: real time      0.0081
    TRIAL :  cpu time      1.8726: real time      1.8911
    CORREC:  cpu time      0.7635: real time      0.7717
    CHARGE:  cpu time      0.1494: real time      0.1504
    --------------------------------------------
      LOOP:  cpu time      2.8257: real time      2.8667

 eigenvalue-minimisations  :     0
 total energy-change (2. order) :-0.4102015E+01  (-0.2545006E+01)
 number of electron     155.9999796 magnetization       1.6892761
 augmentation part       84.2748117 magnetization       1.2985812

 Free energy of the ion-electron system (eV)
  ---------------------------------------------------
  alpha Z        PSCENC =      1173.72503148
  Ewald energy   TEWEN  =    -18537.26679148
  -Hartree energ DENC   =     -5248.90619661
  -exchange      EXHF   =         0.00000000
  -V(xc)+E(xc)   XCENC  =       636.48128636
  PAW double counting   =     22294.74526986   -23062.51866862
  entropy T*S    EENTRO =         0.01522391
  eigenvalues    EBANDS =     -1648.08543514
  atomic energy  EATOM  =     24304.10294433
  ---------------------------------------------------
  free energy    TOTEN  =       -87.70911723 eV

  energy without entropy =      -87.72434115  energy(sigma->0) =      -87.71419187


--------------------------------------------------------------------------------------------------------




--------------------------------------- Iteration      1(   9)  ---------------------------------------


    POTLOK:  cpu time      0.0213: real time      0.0215
    SETDIJ:  cpu time      0.0087: real time      0.0088
    TRIAL :  cpu time      1.8870: real time      1.9052
    CORREC:  cpu time      0.7627: real time      0.7709
    CHARGE:  cpu time      0.1509: real time      0.1517
    --------------------------------------------
      LOOP:  cpu time      2.8529: real time      2.8806

 eigenvalue-minimisations  :     0
 total energy-change (2. order) :-0.2449311E+01  (-0.1633801E+01)
 number of electron     155.9999796 magnetization       1.7540194
 augmentation part       84.7566409 magnetization       1.3507357

 Free energy of the ion-electron system (eV)
  ---------------------------------------------------
  alpha Z        PSCENC =      1173.72503148
  Ewald energy   TEWEN  =    -18537.26679148
  -Hartree energ DENC   =     -5365.06485062
  -exchange      EXHF   =         0.00000000
  -V(xc)+E(xc)   XCENC  =       641.57775505
  PAW double counting   =     22479.86795349   -23263.58035569
  entropy T*S    EENTRO =         0.01551195
  eigenvalues    EBANDS =     -1523.53533880
  atomic energy  EATOM  =     24304.10294433
  ---------------------------------------------------
  free energy    TOTEN  =       -90.15842833 eV

  energy without entropy =      -90.17394028  energy(sigma->0) =      -90.16359898


--------------------------------------------------------------------------------------------------------




--------------------------------------- Iteration      1(  10)  ---------------------------------------


    POTLOK:  cpu time      0.0213: real time      0.0215
    SETDIJ:  cpu time      0.0084: real time      0.0085
    TRIAL :  cpu time      1.8783: real time      1.8966
    CORREC:  cpu time      0.7649: real time      0.7729
    CHARGE:  cpu time      0.1510: real time      0.1518
    --------------------------------------------
      LOOP:  cpu time      2.8324: real time      2.8742

 eigenvalue-minimisations  :     0
 total energy-change (2. order) :-0.1638890E+01  (-0.2649431E+00)
 number of electron     155.9999796 magnetization       1.7322270
 augmentation part       84.7118039 magnetization       1.3532631

 Free energy of the ion-electron system (eV)
  ---------------------------------------------------
  alpha Z        PSCENC =      1173.72503148
  Ewald energy   TEWEN  =    -18537.26679148
  -Hartree energ DENC   =     -5413.09164339
  -exchange      EXHF   =         0.00000000
  -V(xc)+E(xc)   XCENC  =       644.07376957
  PAW double counting   =     22576.12982919   -23354.79400389
  entropy T*S    EENTRO =         0.01535903
  eigenvalues    EBANDS =     -1484.69196578
  atomic energy  EATOM  =     24304.10294433
  ---------------------------------------------------
  free energy    TOTEN  =       -91.79731802 eV

  energy without entropy =      -91.81267705  energy(sigma->0) =      -91.80243770


--------------------------------------------------------------------------------------------------------




--------------------------------------- Iteration      1(  11)  ---------------------------------------


    POTLOK:  cpu time      0.0216: real time      0.0218
    SETDIJ:  cpu time      0.0083: real time      0.0083
    TRIAL :  cpu time      2.0272: real time      2.0465
    CORREC:  cpu time      0.7708: real time      0.7793
    CHARGE:  cpu time      0.1511: real time      0.1519
    --------------------------------------------
      LOOP:  cpu time      2.9885: real time      3.0305

 eigenvalue-minimisations  :     0
 total energy-change (2. order) :-0.2579310E+00  (-0.2439345E+00)
 number of electron     155.9999797 magnetization       1.7657405
 augmentation part       84.6278361 magnetization       1.3675074

 Free energy of the ion-electron system (eV)
  ---------------------------------------------------
  alpha Z        PSCENC =      1173.72503148
  Ewald energy   TEWEN  =    -18537.26679148
  -Hartree energ DENC   =     -5406.14349109
  -exchange      EXHF   =         0.00000000
  -V(xc)+E(xc)   XCENC  =       643.89796857
  PAW double counting   =     22563.04360614   -23336.30054831
  entropy T*S    EENTRO =         0.01486076
  eigenvalues    EBANDS =     -1497.12932768
  atomic energy  EATOM  =     24304.10294433
  ---------------------------------------------------
  free energy    TOTEN  =       -92.05524901 eV

  energy without entropy =      -92.07010978  energy(sigma->0) =      -92.06020260


--------------------------------------------------------------------------------------------------------




--------------------------------------- Iteration      1(  12)  ---------------------------------------


    POTLOK:  cpu time      0.0217: real time      0.0219
    SETDIJ:  cpu time      0.0082: real time      0.0082
    TRIAL :  cpu time      1.8389: real time      1.8570
    CORREC:  cpu time      0.7565: real time      0.7649
    CHARGE:  cpu time      0.1501: real time      0.1510
    --------------------------------------------
      LOOP:  cpu time      2.7841: real time      2.8253

 eigenvalue-minimisations  :     0
 total energy-change (2. order) :-0.2308676E+00  (-0.3858394E+00)
 number of electron     155.9999798 magnetization       1.7923042
 augmentation part       84.5372668 magnetization       1.4081689

 Free energy of the ion-electron system (eV)
  ---------------------------------------------------
  alpha Z        PSCENC =      1173.72503148
  Ewald energy   TEWEN  =    -18537.26679148
  -Hartree energ DENC   =     -5397.43732505
  -exchange      EXHF   =         0.00000000
  -V(xc)+E(xc)   XCENC  =       643.58512723
  PAW double counting   =     22543.58069080   -23310.39034636
  entropy T*S    EENTRO =         0.01610136
  eigenvalues    EBANDS =     -1512.20030829
  atomic energy  EATOM  =     24304.10294433
  ---------------------------------------------------
  free energy    TOTEN  =       -92.28611658 eV

  energy without entropy =      -92.30221794  energy(sigma->0) =      -92.29148370


--------------------------------------------------------------------------------------------------------




--------------------------------------- Iteration      1(  13)  ---------------------------------------


    POTLOK:  cpu time      0.0215: real time      0.0217
    SETDIJ:  cpu time      0.0082: real time      0.0082
    TRIAL :  cpu time      1.9405: real time      1.9597
    CORREC:  cpu time      0.7646: real time      0.7728
    CHARGE:  cpu time      0.1513: real time      0.1521
    --------------------------------------------
      LOOP:  cpu time      2.8942: real time      2.9368

 eigenvalue-minimisations  :     0
 total energy-change (2. order) :-0.3789116E+00  (-0.1810202E+00)
 number of electron     155.9999798 magnetization       1.8227725
 augmentation part       84.6701261 magnetization       1.4314585

 Free energy of the ion-electron system (eV)
  ---------------------------------------------------
  alpha Z        PSCENC =      1173.72503148
  Ewald energy   TEWEN  =    -18537.26679148
  -Hartree energ DENC   =     -5396.42538851
  -exchange      EXHF   =         0.00000000
  -V(xc)+E(xc)   XCENC  =       643.56667762
  PAW double counting   =     22535.29206116   -23293.25859622
  entropy T*S    EENTRO =         0.01761855
  eigenvalues    EBANDS =     -1522.41706792
  atomic energy  EATOM  =     24304.10294433
  ---------------------------------------------------
  free energy    TOTEN  =       -92.66502818 eV

  energy without entropy =      -92.68264673  energy(sigma->0) =      -92.67090103


--------------------------------------------------------------------------------------------------------




--------------------------------------- Iteration      1(  14)  ---------------------------------------


    POTLOK:  cpu time      0.0218: real time      0.0219
    SETDIJ:  cpu time      0.0083: real time      0.0083
    TRIAL :  cpu time      2.0252: real time      2.0448
    CORREC:  cpu time      0.7627: real time      0.7707
    CHARGE:  cpu time      0.1514: real time      0.1522
    --------------------------------------------
      LOOP:  cpu time      2.9909: real time      3.0198

 eigenvalue-minimisations  :     0
 total energy-change (2. order) :-0.1797473E+00  (-0.6396446E-01)
 number of electron     155.9999798 magnetization       1.8050813
 augmentation part       84.7320475 magnetization       1.4329342

 Free energy of the ion-electron system (eV)
  ---------------------------------------------------
  alpha Z        PSCENC =      1173.72503148
  Ewald energy   TEWEN  =    -18537.26679148
  -Hartree energ DENC   =     -5422.77918975
  -exchange      EXHF   =         0.00000000
  -V(xc)+E(xc)   XCENC  =       644.65420241
  PAW double counting   =     22570.79177013   -23330.38393079
  entropy T*S    EENTRO =         0.01778144
  eigenvalues    EBANDS =     -1495.70643037
  atomic energy  EATOM  =     24304.10294433
  ---------------------------------------------------
  free energy    TOTEN  =       -92.84477548 eV

  energy without entropy =      -92.86255692  energy(sigma->0) =      -92.85070263


--------------------------------------------------------------------------------------------------------




--------------------------------------- Iteration      1(  15)  ---------------------------------------


    POTLOK:  cpu time      0.0213: real time      0.0215
    SETDIJ:  cpu time      0.0082: real time      0.0085
    TRIAL :  cpu time      1.8845: real time      1.9030
    CORREC:  cpu time      0.7608: real time      0.7694
    CHARGE:  cpu time      0.1500: real time      0.1508
    --------------------------------------------
      LOOP:  cpu time      2.8328: real time      2.8754

 eigenvalue-minimisations  :     0
 total energy-change (2. order) :-0.6096836E-01  (-0.8093917E-01)
 number of electron     155.9999798 magnetization       1.8553226
 augmentation part       84.8063044 magnetization       1.4693249

 Free energy of the ion-electron system (eV)
  ---------------------------------------------------
  alpha Z        PSCENC =      1173.72503148
  Ewald energy   TEWEN  =    -18537.26679148
  -Hartree energ DENC   =     -5432.44478783
  -exchange      EXHF   =         0.00000000
  -V(xc)+E(xc)   XCENC  =       645.09712085
  PAW double counting   =     22582.36906151   -23342.95918909
  entropy T*S    EENTRO =         0.01602801
  eigenvalues    EBANDS =     -1485.54691505
  atomic energy  EATOM  =     24304.10294433
  ---------------------------------------------------
  free energy    TOTEN  =       -92.90574385 eV

  energy without entropy =      -92.92177186  energy(sigma->0) =      -92.91108652


--------------------------------------------------------------------------------------------------------




--------------------------------------- Iteration      1(  16)  ---------------------------------------


    POTLOK:  cpu time      0.0218: real time      0.0219
    SETDIJ:  cpu time      0.0080: real time      0.0081
    TRIAL :  cpu time      1.8636: real time      1.8818
    CORREC:  cpu time      0.7556: real time      0.7638
    CHARGE:  cpu time      0.1501: real time      0.1509
    --------------------------------------------
      LOOP:  cpu time      2.8081: real time      2.8487

 eigenvalue-minimisations  :     0
 total energy-change (2. order) :-0.8107095E-01  (-0.3924819E-01)
 number of electron     155.9999798 magnetization       1.8621900
 augmentation part       84.8208292 magnetization       1.4795515

 Free energy of the ion-electron system (eV)
  ---------------------------------------------------
  alpha Z        PSCENC =      1173.72503148
  Ewald energy   TEWEN  =    -18537.26679148
  -Hartree energ DENC   =     -5437.39869753
  -exchange      EXHF   =         0.00000000
  -V(xc)+E(xc)   XCENC  =       645.48212889
  PAW double counting   =     22576.88611113   -23338.46235287
  entropy T*S    EENTRO =         0.01506534
  eigenvalues    EBANDS =     -1480.07121676
  atomic energy  EATOM  =     24304.10294433
  ---------------------------------------------------
  free energy    TOTEN  =       -92.98681480 eV

  energy without entropy =      -93.00188014  energy(sigma->0) =      -92.99183658


--------------------------------------------------------------------------------------------------------




--------------------------------------- Iteration      1(  17)  ---------------------------------------


    POTLOK:  cpu time      0.0216: real time      0.0219
    SETDIJ:  cpu time      0.0081: real time      0.0081
    TRIAL :  cpu time      1.8630: real time      1.8815
    CORREC:  cpu time      0.7660: real time      0.7741
    CHARGE:  cpu time      0.2618: real time      0.2631
    --------------------------------------------
      LOOP:  cpu time      2.9283: real time      2.9713

 eigenvalue-minimisations  :     0
 total energy-change (2. order) :-0.3848233E-01  (-0.2550209E-01)
 number of electron     155.9999799 magnetization       1.8696384
[...]
     29       4.6706      1.00000
     30       4.6842      1.00000
     31       4.8538      1.00000
     32       5.0805      1.00000
     33       5.1755      1.00000
     34       5.3057      1.00000
     35       5.5167      1.00000
     36       5.5353      1.00000
     37       5.7476      1.00000
     38       5.8275      1.00000
     39       5.8288      1.00000
     40       6.3820      1.00000
     41       6.8130      1.00000
     42       7.3290      1.00000
     43       7.3577      1.00000
     44       7.4925      1.00000
     45       7.5428      1.00000
     46       7.6849      1.00000
     47       7.7964      1.00000
     48       7.8536      1.00000
     49       7.8635      1.00000
     50       7.9229      1.00000
     51       8.0585      1.00000
     52       8.1060      1.00000
     53       8.1502      1.00000
     54       8.2323      1.00000
     55       8.2505      1.00000
     56       8.3300      1.00000
     57       8.3554      1.00000
     58       8.5557      1.00000
     59       8.5590      1.00000
     60       9.0765      1.00000
     61       9.1434      1.00000
     62       9.2809      1.00000
     63       9.3902      1.00000
     64       9.4993      1.00000
     65       9.7017      1.00000
     66       9.7483      1.00000
     67       9.7487      1.00000
     68       9.7819      1.00000
     69       9.8551      1.00000
     70       9.8706      1.00000
     71       9.8823      1.00000
     72       9.9692      1.00000
     73      10.2050      1.00001
     74      10.3114      1.00037
     75      10.3674      1.00138
     76      10.5089      1.01627
     77      10.6572      1.02641
     78      10.7595      0.87060
     79      10.8521      0.53379
     80      11.1816     -0.02255
     81      11.2371     -0.01134
     82      11.2984     -0.00445
     83      11.4173     -0.00026
     84      11.4994     -0.00003
     85      11.6144     -0.00000
     86      11.7571     -0.00000
     87      11.7992     -0.00000
     88      12.1138     -0.00000
     89      12.2706     -0.00000
     90      12.3945     -0.00000
     91      12.4618     -0.00000
     92      12.5018     -0.00000
     93      12.6921     -0.00000
     94      13.1023     -0.00000
     95      13.2191     -0.00000
     96      13.4203     -0.00000


--------------------------------------------------------------------------------------------------------


 soft charge-density along one line, spin component           1
         0         1         2         3         4         5         6         7         8         9
 total charge-density along one line
 
 soft charge-density along one line, spin component           2
         0         1         2         3         4         5         6         7         8         9
 total charge-density along one line
 
 pseudopotential strength for first ion, spin component:           1
-42.084   0.000  -0.000   6.403  -0.000   0.000   0.000  -0.000
  0.000 -42.079   0.000  -0.000   6.401  -0.000   0.000   0.000
 -0.000   0.000 -42.021   0.000  -0.000   6.377   0.000   0.000
  6.403  -0.000   0.000   5.953  -0.000   0.000   0.000   0.000
 -0.000   6.401  -0.000  -0.000   5.953  -0.000  -0.000  -0.000
  0.000  -0.000   6.377   0.000  -0.000   5.958  -0.000  -0.000
  0.000   0.000   0.000   0.000  -0.000  -0.000   0.241   0.000
 -0.000   0.000   0.000   0.000  -0.000  -0.000   0.000   0.263
 -0.000  -0.000   0.000   0.000   0.000  -0.000   0.000   0.000
  0.000  -0.000  -0.000  -0.000  -0.000   0.000   0.000  -0.000
 -0.000   0.000  -0.000   0.000   0.000  -0.000   0.000  -0.000
 -0.000   0.000   0.000   0.000  -0.000  -0.000  -0.310   0.000
 -0.000   0.000   0.000   0.000  -0.000  -0.000   0.000  -0.288
 -0.000  -0.000   0.000   0.000   0.000  -0.000   0.000   0.000
  0.000  -0.000  -0.000  -0.000  -0.000   0.000   0.000  -0.000
 -0.000   0.000   0.000   0.000   0.000   0.000   0.000  -0.000
 -0.000   0.000   0.000  -0.000   0.000  -0.000   0.000  -0.000
 -0.000   0.000   0.000  -0.000   0.000   0.000   0.000  -0.000
 pseudopotential strength for first ion, spin component:           2
-44.173   0.000  -0.000   7.284  -0.000   0.000   0.000  -0.000
  0.000 -44.155   0.000  -0.000   7.276  -0.000  -0.000   0.000
 -0.000   0.000 -44.019   0.000  -0.000   7.222   0.000  -0.000
  7.284  -0.000   0.000   5.710  -0.000   0.000  -0.000   0.000
 -0.000   7.276  -0.000  -0.000   5.711  -0.000   0.000  -0.000
  0.000  -0.000   7.222   0.000  -0.000   5.721  -0.000   0.000
  0.000  -0.000   0.000  -0.000   0.000  -0.000  -1.359   0.000
 -0.000   0.000  -0.000   0.000  -0.000   0.000   0.000  -1.520
 -0.000  -0.000   0.000   0.000   0.000  -0.000   0.000   0.000
 -0.000   0.000   0.000   0.000  -0.000  -0.000   0.000  -0.000
 -0.000   0.000  -0.000   0.000  -0.000  -0.000   0.000  -0.000
 -0.000  -0.000   0.000  -0.000   0.000  -0.000  -1.884   0.000
 -0.000   0.000  -0.000   0.000  -0.000   0.000   0.000  -2.042
 -0.000  -0.000   0.000   0.000   0.000  -0.000   0.000   0.000
 -0.000   0.000   0.000   0.000  -0.000  -0.000   0.000  -0.000
 -0.000   0.000   0.000   0.000  -0.000   0.000   0.000  -0.000
 -0.000   0.000   0.000  -0.000   0.000  -0.000   0.000  -0.000
 -0.000   0.000  -0.000  -0.000   0.000  -0.000   0.000  -0.000
 total augmentation occupancy for first ion, spin component:           1
  1.992   0.000   0.000  -0.025   0.000   0.000   0.000   0.000   0.000   0.000  -0.000   0.000  -0.000   0.000   0.000   0.000
  0.000   1.992   0.000   0.000  -0.024   0.000   0.000   0.000   0.000   0.000   0.000   0.000   0.000  -0.000   0.000  -0.000
  0.000   0.000   1.992   0.000   0.000  -0.024   0.000   0.000   0.000   0.000   0.000   0.000   0.000   0.000  -0.000   0.000
 -0.025   0.000   0.000   0.196   0.000   0.000   0.000   0.000   0.000   0.000   0.000   0.000  -0.000   0.000   0.000   0.000
  0.000  -0.024   0.000   0.000   0.198  -0.000   0.000   0.000   0.000   0.000  -0.000   0.000   0.000  -0.000   0.000  -0.000
  0.000   0.000  -0.024   0.000  -0.000   0.188   0.000   0.000   0.000   0.000   0.000   0.000   0.000   0.000  -0.000   0.000
  0.000   0.000   0.000   0.000   0.000   0.000   2.664  -0.000  -0.000   0.000  -0.000  -1.580  -0.000   0.000   0.000  -0.000
  0.000   0.000   0.000   0.000   0.000   0.000  -0.000   3.132   0.000   0.000   0.000   0.000  -2.306   0.000   0.000   0.000
  0.000   0.000   0.000   0.000   0.000   0.000  -0.000   0.000   3.323  -0.000   0.195   0.000   0.000  -2.032   0.000  -0.069
  0.000   0.000   0.000   0.000   0.000   0.000   0.000   0.000  -0.000   2.791  -0.000   0.000   0.000   0.000  -1.664  -0.000
 -0.000   0.000   0.000   0.000  -0.000   0.000  -0.000   0.000   0.195  -0.000   3.238   0.000   0.000  -0.070  -0.000  -2.010
  0.000   0.000   0.000   0.000   0.000   0.000  -1.580   0.000   0.000   0.000   0.000   1.897  -0.000   0.000   0.000  -0.000
 -0.000   0.000   0.000  -0.000   0.000   0.000  -0.000  -2.306   0.000   0.000   0.000  -0.000   2.710   0.000   0.000   0.000
  0.000  -0.000   0.000   0.000  -0.000   0.000   0.000   0.000  -2.032   0.000  -0.070   0.000   0.000   2.049  -0.000  -0.010
  0.000   0.000  -0.000   0.000   0.000  -0.000   0.000   0.000   0.000  -1.664  -0.000   0.000   0.000  -0.000   1.991   0.000
  0.000  -0.000   0.000   0.000  -0.000   0.000  -0.000   0.000  -0.069  -0.000  -2.010  -0.000   0.000  -0.010   0.000   2.070
  0.000   0.000   0.000   0.000  -0.000   0.000   0.000   0.000  -0.089   0.000   0.160   0.000   0.000   0.073   0.000  -0.098
 -0.000  -0.000   0.000   0.000   0.000   0.000   0.000   0.000   0.010  -0.000  -0.016   0.000   0.000  -0.007  -0.000   0.009
 total augmentation occupancy for first ion, spin component:           2
  0.002  -0.000   0.000   0.008  -0.000  -0.000   0.000   0.000   0.000   0.000   0.000   0.000  -0.000   0.000   0.000   0.000
 -0.000   0.002   0.000   0.000   0.008   0.000   0.000   0.000   0.000   0.000   0.000   0.000   0.000  -0.000   0.000  -0.000
  0.000   0.000   0.002   0.000   0.000   0.009  -0.000  -0.000   0.000   0.000   0.000   0.000  -0.000   0.000  -0.000   0.000
  0.008   0.000   0.000  -0.003   0.000   0.000   0.000  -0.000   0.000  -0.000   0.000   0.000  -0.000  -0.000   0.000   0.000
 -0.000   0.008   0.000   0.000   0.008   0.000   0.000   0.000  -0.000   0.000  -0.000   0.000  -0.000   0.000   0.000  -0.000
 -0.000   0.000   0.009   0.000   0.000   0.006  -0.000  -0.000  -0.000  -0.000   0.000   0.000   0.000  -0.000  -0.000   0.000
  0.000   0.000  -0.000   0.000   0.000  -0.000  -1.971   0.000   0.000   0.000  -0.000   0.827   0.000   0.000   0.000   0.000
  0.000   0.000  -0.000  -0.000   0.000  -0.000   0.000  -2.004   0.000   0.000   0.000  -0.000   0.640   0.000   0.000   0.000
  0.000   0.000   0.000   0.000  -0.000  -0.000   0.000   0.000  -2.453   0.000  -0.094  -0.000   0.000   1.025  -0.000   0.129
  0.000   0.000   0.000  -0.000   0.000  -0.000   0.000   0.000   0.000  -2.030  -0.000   0.000   0.000   0.000   0.867   0.000
  0.000   0.000   0.000   0.000  -0.000   0.000  -0.000   0.000  -0.094  -0.000  -2.442   0.000   0.000   0.129   0.000   0.964
  0.000   0.000   0.000   0.000   0.000   0.000   0.827  -0.000  -0.000   0.000   0.000  -0.139   0.000   0.000   0.000   0.000
 -0.000   0.000  -0.000  -0.000  -0.000   0.000   0.000   0.640   0.000   0.000   0.000   0.000   0.102   0.000   0.000   0.000
  0.000  -0.000   0.000  -0.000   0.000  -0.000   0.000   0.000   1.025   0.000   0.129   0.000   0.000  -0.272   0.000  -0.143
  0.000   0.000  -0.000   0.000   0.000  -0.000   0.000   0.000  -0.000   0.867   0.000   0.000   0.000   0.000  -0.135  -0.000
  0.000  -0.000   0.000   0.000  -0.000   0.000   0.000   0.000   0.129   0.000   0.964   0.000   0.000  -0.143  -0.000  -0.180
  0.000  -0.000   0.000   0.000  -0.000   0.000  -0.000   0.000  -0.018  -0.000  -0.032  -0.000   0.000   0.010   0.000   0.051
  0.000   0.000   0.000   0.000   0.000  -0.000   0.000   0.000  -0.004   0.000   0.009   0.000   0.000   0.001  -0.000  -0.002


------------------------ aborting loop because EDIFF is reached ----------------------------------------





 total charge

# of ion       s       p       d       tot
------------------------------------------
    1        0.368   6.364   6.094  12.826
    2        0.369   6.370   6.075  12.814
    3        0.369   6.370   6.075  12.814
    4        0.373   6.375   6.060  12.807
    5        0.373   6.375   6.060  12.807
    6        0.369   6.369   6.079  12.816
    7        0.368   6.364   6.094  12.826
    8        0.369   6.370   6.075  12.814
    9        0.369   6.370   6.075  12.814
   10        0.810   0.780   8.059   9.648
   11        0.810   0.780   8.059   9.648
   12        0.796   0.795   8.056   9.647
--------------------------------------------------
tot          5.741  59.679  78.862 144.282



 magnetization (x)

# of ion       s       p       d       tot
------------------------------------------
    1       -0.005   0.009  -2.406  -2.401
    2        0.008   0.004   2.288   2.301
    3        0.008   0.004   2.289   2.301
    4       -0.014  -0.025  -2.367  -2.406
    5       -0.014  -0.025  -2.367  -2.407
    6        0.003  -0.016   2.487   2.473
    7       -0.005   0.009  -2.406  -2.401
    8        0.008   0.004   2.288   2.301
    9        0.008   0.004   2.289   2.301
   10        0.009   0.021  -0.121  -0.091
   11        0.009   0.021  -0.121  -0.091
   12       -0.035  -0.086   0.320   0.199
--------------------------------------------------
tot         -0.019  -0.076   2.172   2.077
 
    FORLOC:  cpu time      0.0009: real time      0.0009
    FORNL :  cpu time      0.5236: real time      0.5269
    STRESS:  cpu time      3.9452: real time      3.9793
    FORCOR:  cpu time      0.0210: real time      0.0215
    OFIELD:  cpu time      0.0001: real time      0.0001

  FORCE on cell =-STRESS in cart. coord.  units (eV):
  Direction    XX          YY          ZZ          XY          YZ          ZX
  --------------------------------------------------------------------------------------
  Alpha Z  1173.72503  1173.72503  1173.72503
  Ewald   -6174.81415 -6174.81415 -6187.65970    -0.00000    -0.00000    -0.00000
  Hartree  1813.92882  1813.92882  1799.83396    -0.00000    -0.00000    -0.00000
  E(xc)    -945.42612  -945.42612  -945.36042    -0.00000    -0.00000     0.00000
  Local    1200.64466  1200.64466  1235.45874    -0.00000    -0.00000    -0.00000
  n-local  -201.08754  -214.27287  -207.13839    15.55028     0.10528     0.08312
  augment  1438.34130  1438.34130  1432.88490     0.00000     0.00000     0.00000
  Kinetic  1721.00768  1700.59890  1707.78286     4.07784     0.27899     0.80130
  Fock        0.00000     0.00000     0.00000     0.00000     0.00000     0.00000
  -------------------------------------------------------------------------------------
  Total       9.52262     9.52262     9.52698     0.00000     0.00000     0.00000
  in kB     105.22013   105.22013   105.26840     0.00000     0.00000     0.00000
  external pressure =      105.24 kB  Pullay stress =        0.00 kB


 VOLUME and BASIS-vectors are now :
 -----------------------------------------------------------------------------
  energy-cutoff  :      520.00
  volume of cell :      145.00
      direct lattice vectors                 reciprocal lattice vectors
     3.631519022  0.000000000  0.000000000     0.275366863  0.000000000  0.000000000
     0.000000000  3.631519022  0.000000000     0.000000000  0.275366863  0.000000000
     0.000000000  0.000000000 10.994901819     0.000000000  0.000000000  0.090951244

  length of vectors
     3.631519022  3.631519022 10.994901819     0.275366863  0.275366863  0.090951244


 FORCES acting on ions:
    Electron-Ion                     Ewald-Force                    Non-Local-Force
 -----------------------------------------------------------------------------------------------
   -.714E-13 0.906E-12 -.914E-01   0.333E-14 -.142E-13 0.882E-01   0.122E-21 0.661E-21 0.175E-02
   -.683E-13 0.264E-12 -.119E+02   0.210E-13 -.237E-13 0.130E+02   0.185E-18 -.554E-18 -.116E+01
   -.671E-13 0.139E-11 0.120E+02   0.122E-14 -.385E-14 -.131E+02   0.103E-18 -.291E-18 0.116E+01
   0.103E-11 0.695E-11 0.415E+02   -.330E-13 -.187E-13 -.400E+02   -.101E-17 -.108E-17 -.154E+01
   0.100E-11 -.457E-11 -.413E+02   0.296E-13 0.148E-13 0.397E+02   -.140E-17 -.887E-18 0.154E+01
   0.102E-11 -.482E-11 -.280E+00   0.516E-13 0.138E-13 0.281E+00   -.481E-21 0.116E-21 0.160E-02
   0.102E-11 -.522E-13 -.914E-01   -.235E-13 -.141E-13 0.882E-01   0.275E-21 -.134E-21 0.175E-02
   0.102E-11 0.998E-13 -.119E+02   -.197E-13 0.852E-14 0.130E+02   -.508E-18 -.190E-18 -.116E+01
   0.102E-11 -.112E-12 0.120E+02   0.423E-14 -.536E-14 -.131E+02   0.230E-18 -.167E-18 0.116E+01
   -.419E-13 -.509E-13 0.270E+01   0.110E-13 0.406E-13 -.276E+01   -.336E-18 0.315E-18 0.945E-01
   -.350E-13 0.783E-13 -.260E+01   -.271E-13 0.261E-13 0.266E+01   -.304E-19 -.139E-17 -.944E-01
   -.376E-13 -.385E-13 -.104E+00   -.221E-13 -.304E-15 0.105E+00   0.296E-21 -.229E-21 -.643E-04
 -----------------------------------------------------------------------------------------------
   0.582E-11 0.438E-13 -.373E-04   -.361E-14 0.236E-13 0.169E-12   -.276E-17 -.424E-17 0.267E-05
 
 
 POSITION                                       TOTAL-FORCE (eV/Angst)
 -----------------------------------------------------------------------------------
      0.00000      1.81576      1.83244         0.000000      0.000000     -0.001494
      0.00000      1.81576      5.49268         0.000000     -0.000000     -0.002408
      0.00000      1.81576      9.16725         0.000000      0.000000      0.003509
      1.81576      1.81576      0.03403        -0.000000      0.000000     -0.004679
      1.81576      1.81576      3.63109        -0.000000     -0.000000      0.002995
      1.81576      1.81576      7.32974         0.000000     -0.000000      0.002280
      1.81576      0.00000      1.83244        -0.000000     -0.000000     -0.001494
      1.81576      0.00000      5.49268         0.000000     -0.000000     -0.002408
      1.81576      0.00000      9.16725         0.000000     -0.000000      0.003509
      0.00000      0.00000     10.97192         0.000000     -0.000000     -0.006420
      0.00000      0.00000      3.68795         0.000000     -0.000000      0.005621
      0.00000      0.00000      7.32995         0.000000     -0.000000      0.000989
 -----------------------------------------------------------------------------------
    total drift:                                0.000000      0.000000     -0.000035


--------------------------------------------------------------------------------------------------------



  FREE ENERGIE OF THE ION-ELECTRON SYSTEM (eV)
  ---------------------------------------------------
  free  energy   TOTEN  =       -93.13281075 eV

  energy  without entropy=      -93.14012582  energy(sigma->0) =      -93.13524910
 


--------------------------------------------------------------------------------------------------------


    POTLOK:  cpu time      0.0483: real time      0.0486


--------------------------------------------------------------------------------------------------------




--------------------------------------------------------------------------------------------------------


  
 reached required accuracy - stopping structural energy minimisation
     LOOP+:  cpu time    153.3144: real time    155.4674
    4ORBIT:  cpu time      0.0000: real time      0.0000



 total charge

# of ion       s       p       d       tot
------------------------------------------
    1        0.368   6.364   6.094  12.826
    2        0.369   6.370   6.075  12.814
    3        0.369   6.370   6.075  12.814
    4        0.373   6.375   6.060  12.807
    5        0.373   6.375   6.060  12.807
    6        0.369   6.369   6.079  12.816
    7        0.368   6.364   6.094  12.826
    8        0.369   6.370   6.075  12.814
    9        0.369   6.370   6.075  12.814
   10        0.810   0.780   8.059   9.648
   11        0.810   0.780   8.059   9.648
   12        0.796   0.795   8.056   9.647
--------------------------------------------------
tot          5.741  59.679  78.862 144.282



 magnetization (x)

# of ion       s       p       d       tot
------------------------------------------
    1       -0.005   0.009  -2.406  -2.401
    2        0.008   0.004   2.288   2.301
    3        0.008   0.004   2.289   2.301
    4       -0.014  -0.025  -2.367  -2.406
    5       -0.014  -0.025  -2.367  -2.407
    6        0.003  -0.016   2.487   2.473
    7       -0.005   0.009  -2.406  -2.401
    8        0.008   0.004   2.288   2.301
    9        0.008   0.004   2.289   2.301
   10        0.009   0.021  -0.121  -0.091
   11        0.009   0.021  -0.121  -0.091
   12       -0.035  -0.086   0.320   0.199
--------------------------------------------------
tot         -0.019  -0.076   2.172   2.077
 

 total amount of memory used by VASP MPI-rank0   236241. kBytes
=======================================================================

   base      :      30000. kBytes
   nonl-proj :      96755. kBytes
   fftplans  :        888. kBytes
   grid      :       6813. kBytes
   one-center:        373. kBytes
   wavefun   :     101412. kBytes
 
  
  
 General timing and accounting informations for this job:
 ========================================================
  
                  Total CPU time used (sec):      169.037
                            User time (sec):      162.397
                          System time (sec):        6.640
                         Elapsed time (sec):      177.172
  
                   Maximum memory used (kb):      953544.
                   Average memory used (kb):          N/A
  
                          Minor page faults:       150609
                          Major page faults:          148
                 Voluntary context switches:        11130
