       N       E                     dE             d eps       ncg     rms          rms(c)
DAV:   1     0.176281674624E+04    0.17628E+04   -0.84320E+04 43136   0.182E+03
DAV:   2     0.545425729526E+01   -0.17574E+04   -0.16679E+04 43008   0.483E+02
DAV:   3    -0.103547991286E+03   -0.10900E+03   -0.10767E+03 50624   0.129E+02
DAV:   4    -0.105084464842E+03   -0.15365E+01   -0.15362E+01 45600   0.154E+01
DAV:   5    -0.105112819824E+03   -0.28355E-01   -0.28354E-01 53216   0.203E+00    0.407E+01
DAV:   6    -0.109647958349E+03   -0.45351E+01   -0.14858E+02 51328   0.640E+01    0.604E+01
DAV:   7    -0.116180480826E+03   -0.65325E+01   -0.45607E+02 53312   0.625E+01    0.658E+01
DAV:   8    -0.990403039885E+02    0.17140E+02   -0.12308E+02 51776   0.466E+01    0.380E+01
DAV:   9    -0.104095949003E+03   -0.50556E+01   -0.21481E+02 50688   0.370E+01    0.484E+01
DAV:  10    -0.968716779641E+02    0.72243E+01   -0.99072E+01 51232   0.225E+01    0.337E+01
DAV:  11    -0.920940531720E+02    0.47776E+01   -0.30060E+01 52384   0.182E+01    0.124E+01
DAV:  12    -0.947412343412E+02   -0.26472E+01   -0.31415E+01 52832   0.141E+01    0.278E+01
DAV:  13    -0.924513685978E+02    0.22899E+01   -0.25777E+01 52352   0.122E+01    0.842E+00
DAV:  14    -0.926430130733E+02   -0.19164E+00   -0.19563E+00 51776   0.543E+00    0.924E+00
DAV:  15    -0.926476632927E+02   -0.46502E-02   -0.94804E-01 51104   0.345E+00    0.773E+00
DAV:  16    -0.927392317768E+02   -0.91568E-01   -0.14605E-01 52384   0.147E+00    0.706E+00
DAV:  17    -0.930350873643E+02   -0.29586E+00   -0.11955E+00 53184   0.328E+00    0.526E+00
DAV:  18    -0.931930623303E+02   -0.15797E+00   -0.86159E-01 52256   0.335E+00    0.319E+00
DAV:  19    -0.932276805675E+02   -0.34618E-01   -0.24633E-01 54368   0.223E+00    0.182E+00
DAV:  20    -0.932374512664E+02   -0.97707E-02   -0.67360E-02 52032   0.118E+00    0.119E+00
DAV:  21    -0.932405896788E+02   -0.31384E-02   -0.24384E-02 52832   0.774E-01    0.823E-01
DAV:  22    -0.932423986566E+02   -0.18090E-02   -0.28312E-02 52512   0.778E-01    0.672E-01
DAV:  23    -0.932435050314E+02   -0.11064E-02   -0.52324E-03 52416   0.298E-01    0.414E-01
DAV:  24    -0.932441242289E+02   -0.61920E-03   -0.34111E-03 54080   0.241E-01    0.240E-01
DAV:  25    -0.932443528361E+02   -0.22861E-03   -0.18485E-03 53984   0.177E-01    0.150E-01
DAV:  26    -0.932444562715E+02   -0.10344E-03   -0.63050E-04 53120   0.990E-02    0.111E-01
DAV:  27    -0.932444750067E+02   -0.18735E-04   -0.28778E-04 52896   0.840E-02    0.487E-02
DAV:  28    -0.932444765669E+02   -0.15601E-05   -0.58222E-05 52544   0.319E-02    0.259E-02
DAV:  29    -0.932444768735E+02   -0.30659E-06   -0.18137E-05 52352   0.209E-02    0.181E-02
DAV:  30    -0.932444731902E+02    0.36833E-05   -0.99658E-06 41120   0.154E-02    0.983E-03
DAV:  31    -0.932444738035E+02   -0.61329E-06   -0.29264E-06 29344   0.786E-03
   1 F= -.93244474E+02 E0= -.93244474E+02  d E =0.000000E+00  mag=     8.1307
