       N       E                     dE             d eps       ncg     rms          ort
DAV:   1     0.176281189388E+04    0.17628E+04   -0.91397E+04 10752   0.201E+03
DAV:   2     0.545368196557E+01   -0.17574E+04   -0.16679E+04 10752   0.483E+02
DAV:   3    -0.103545200377E+03   -0.10900E+03   -0.10766E+03 10752   0.129E+02
DAV:   4    -0.105081714317E+03   -0.15365E+01   -0.15362E+01 10752   0.154E+01
DAV:   5    -0.105110069085E+03   -0.28355E-01   -0.28354E-01 10752   0.203E+00
SDA:   6    -0.529296495391E+02    0.52180E+02   -0.28354E-01 10752   0.449E+03 0.000E+00
CGA:   7    -0.665669644484E+02   -0.13637E+02   -0.10485E+02 10752   0.179E+03 0.124E+03
CGA:   8    -0.835706632854E+02   -0.17004E+02   -0.15946E+02 10752   0.159E+03 0.112E+02
CGA:   9    -0.869819622945E+02   -0.34113E+01   -0.30972E+01 10752   0.360E+02 0.217E+02
CGA:  10    -0.885644809268E+02   -0.15825E+01   -0.17760E+01 10752   0.380E+02-0.347E+01
CGA:  11    -0.894193010391E+02   -0.85482E+00   -0.73980E+00 10752   0.195E+02 0.570E+01
CGA:  12    -0.902094934282E+02   -0.79019E+00   -0.69983E+00 10752   0.269E+02 0.283E+01
CGA:  13    -0.915774866955E+02   -0.13680E+01   -0.11420E+01 10752   0.216E+02 0.598E+01
CGA:  14    -0.919987323667E+02   -0.42125E+00   -0.30782E+00 10752   0.555E+01 0.979E+01
CGA:  15    -0.921507894706E+02   -0.15206E+00   -0.16687E+00 10752   0.497E+01-0.645E+00
CGA:  16    -0.923369667252E+02   -0.18618E+00   -0.19621E+00 10752   0.124E+02-0.154E+00
CGA:  17    -0.925974783355E+02   -0.26051E+00   -0.23876E+00 10752   0.730E+01 0.120E+01
CGA:  18    -0.927605597139E+02   -0.16308E+00   -0.17088E+00 10752   0.596E+01-0.332E+00
CGA:  19    -0.929231827681E+02   -0.16262E+00   -0.16209E+00 10752   0.605E+01 0.294E-01
CGA:  20    -0.930214260795E+02   -0.98243E-01   -0.96383E-01 10752   0.163E+01 0.118E+00
CGA:  21    -0.930477767029E+02   -0.26351E-01   -0.27341E-01 10752   0.906E+00-0.530E-01
CGA:  22    -0.930791195522E+02   -0.31343E-01   -0.32015E-01 10752   0.154E+01-0.124E-01
CGA:  23    -0.931151272939E+02   -0.36008E-01   -0.37382E-01 10752   0.830E+00-0.466E-01
CGA:  24    -0.931312835386E+02   -0.16156E-01   -0.16453E-01 10752   0.609E+00-0.128E-01
CGA:  25    -0.931524780870E+02   -0.21195E-01   -0.21198E-01 10752   0.803E+00-0.662E-03
CGA:  26    -0.931692869238E+02   -0.16809E-01   -0.17212E-01 10752   0.321E+00-0.180E-01
CGA:  27    -0.931763666184E+02   -0.70797E-02   -0.71890E-02 10752   0.292E+00-0.486E-02
CGA:  28    -0.931884428651E+02   -0.12076E-01   -0.12211E-01 10752   0.414E+00-0.240E-02
CGA:  29    -0.931968708131E+02   -0.84279E-02   -0.87403E-02 10752   0.143E+00-0.135E-01
CGA:  30    -0.932005891226E+02   -0.37183E-02   -0.37509E-02 10752   0.158E+00-0.118E-02
CGA:  31    -0.932083642060E+02   -0.77751E-02   -0.78099E-02 10752   0.243E+00-0.214E-03
CGA:  32    -0.932144127525E+02   -0.60485E-02   -0.61686E-02 10752   0.143E+00-0.368E-02
CGA:  33    -0.932201077905E+02   -0.56950E-02   -0.57476E-02 10752   0.211E+00-0.436E-03
CGA:  34    -0.932265125348E+02   -0.64047E-02   -0.65029E-02 10752   0.823E-01-0.177E-02
CGA:  35    -0.932281770249E+02   -0.16645E-02   -0.16803E-02 10752   0.380E-01-0.526E-03
CGA:  36    -0.932302959082E+02   -0.21189E-02   -0.21210E-02 10752   0.810E-01 0.623E-04
SDA:  37    -0.932331216179E+02   -0.28257E-02   -0.28393E-02 10752   0.481E-01-0.190E-03
CGA:  38    -0.932351343605E+02   -0.20127E-02   -0.20152E-02 10752   0.175E-01-0.181E-04
CGA:  39    -0.932358569333E+02   -0.72257E-03   -0.72178E-03 10752   0.982E-02-0.149E-05
CGA:  40    -0.932380849617E+02   -0.22280E-02   -0.22266E-02 10752   0.103E-01 0.145E-04
CGA:  41    -0.932384296544E+02   -0.34469E-03   -0.34539E-03 10752   0.521E-02 0.190E-04
CGA:  42    -0.932389339757E+02   -0.50432E-03   -0.50157E-03 10752   0.272E-02 0.101E-03
CGA:  43    -0.932393184186E+02   -0.38444E-03   -0.37757E-03 10752   0.172E-02 0.106E-03
CGA:  44    -0.932397177257E+02   -0.39931E-03   -0.38599E-03 10752   0.647E-02 0.969E-04
CGA:  45    -0.932400137541E+02   -0.29603E-03   -0.29719E-03 10752   0.216E-02 0.365E-04
CGA:  46    -0.932401536291E+02   -0.13987E-03   -0.13961E-03 10752   0.747E-03-0.104E-04
CGA:  47    -0.932402533500E+02   -0.99721E-04   -0.10387E-03 10752   0.306E-02-0.666E-04
CGA:  48    -0.932403947436E+02   -0.14139E-03   -0.13815E-03 10752   0.339E-03-0.102E-03
CGA:  49    -0.932404154143E+02   -0.20671E-04   -0.20403E-04 10752   0.651E-03-0.143E-04
CGA:  50    -0.932404674718E+02   -0.52058E-04   -0.52254E-04 10752   0.191E-03-0.402E-04
CGA:  51    -0.932404729995E+02   -0.55277E-05   -0.53899E-05 10752   0.962E-04-0.180E-05
CGA:  52    -0.932404842449E+02   -0.11245E-04   -0.11181E-04 10752   0.131E-03 0.247E-05
CGA:  53    -0.932404898558E+02   -0.56109E-05   -0.56820E-05 10752   0.104E-03 0.274E-05
CGA:  54    -0.932404957426E+02   -0.58868E-05   -0.59350E-05 10752   0.453E-04 0.306E-05
CGA:  55    -0.932405002655E+02   -0.45229E-05   -0.44937E-05 10752   0.105E-03 0.212E-05
CGA:  56    -0.932405042304E+02   -0.39650E-05   -0.40265E-05 10752   0.103E-04 0.224E-05
CGA:  57    -0.932405051916E+02   -0.96112E-06   -0.93465E-06 10752   0.189E-04 0.255E-05
CGA:  58    -0.932405063645E+02   -0.11730E-05   -0.12373E-05 10752   0.146E-04 0.336E-05
CGA:  59    -0.932405077506E+02   -0.13861E-05   -0.13659E-05 10752   0.380E-05 0.426E-05
CGA:  60    -0.932405079532E+02   -0.20261E-06   -0.20783E-06 10752   0.258E-05 0.675E-06
   1 F= -.93240508E+02 E0= -.93244038E+02  d E =-.932405E+02  mag=     8.1495
