       N       E                     dE             d eps       ncg     rms          ort
DAV:   1     0.176579365750E+04    0.17658E+04   -0.91522E+04 10752   0.201E+03
DAV:   2     0.552896048303E+01   -0.17603E+04   -0.16705E+04 10752   0.484E+02
DAV:   3    -0.103473956838E+03   -0.10900E+03   -0.10767E+03 10752   0.129E+02
DAV:   4    -0.105011244691E+03   -0.15373E+01   -0.15370E+01 10752   0.154E+01
DAV:   5    -0.105039673449E+03   -0.28429E-01   -0.28428E-01 10752   0.203E+00
SDA:   6    -0.526834384805E+02    0.52356E+02   -0.28428E-01 10752   0.473E+03 0.000E+00
CGA:   7    -0.665870147097E+02   -0.13904E+02   -0.10710E+02 10752   0.175E+03 0.130E+03
CGA:   8    -0.829888679726E+02   -0.16402E+02   -0.15369E+02 10752   0.187E+03 0.113E+02
CGA:   9    -0.870052147621E+02   -0.40163E+01   -0.37705E+01 10752   0.374E+02 0.184E+02
CGA:  10    -0.885135986405E+02   -0.15084E+01   -0.17367E+01 10752   0.412E+02-0.429E+01
CGA:  11    -0.894415745086E+02   -0.92798E+00   -0.80050E+00 10752   0.204E+02 0.619E+01
CGA:  12    -0.901778140954E+02   -0.73624E+00   -0.64874E+00 10752   0.234E+02 0.314E+01
CGA:  13    -0.915531122670E+02   -0.13753E+01   -0.12243E+01 10752   0.253E+02 0.317E+01
CGA:  14    -0.919908531467E+02   -0.43774E+00   -0.30635E+00 10752   0.841E+01 0.125E+02
CGA:  15    -0.921841146606E+02   -0.19326E+00   -0.20596E+00 10752   0.420E+01-0.684E+00
CGA:  16    -0.923788310227E+02   -0.19472E+00   -0.20301E+00 10752   0.104E+02-0.990E-01
CGA:  17    -0.926361457710E+02   -0.25731E+00   -0.26719E+00 10752   0.616E+01-0.276E+00
CGA:  18    -0.928009434105E+02   -0.16480E+00   -0.16970E+00 10752   0.650E+01-0.161E+00
CGA:  19    -0.929996691911E+02   -0.19873E+00   -0.20012E+00 10752   0.395E+01-0.237E-01
CGA:  20    -0.930613198041E+02   -0.61651E-01   -0.61727E-01 10752   0.807E+00-0.191E-02
CGA:  21    -0.930817108156E+02   -0.20391E-01   -0.20916E-01 10752   0.864E+00-0.164E-01
CGA:  22    -0.931191433667E+02   -0.37433E-01   -0.37758E-01 10752   0.109E+01-0.492E-02
CGA:  23    -0.931429662913E+02   -0.23823E-01   -0.24688E-01 10752   0.574E+00-0.334E-01
CGA:  24    -0.931637599117E+02   -0.20794E-01   -0.20776E-01 10752   0.746E+00-0.407E-03
CGA:  25    -0.931832304835E+02   -0.19471E-01   -0.19841E-01 10752   0.258E+00-0.133E-01
CGA:  26    -0.931887233430E+02   -0.54929E-02   -0.55558E-02 10752   0.168E+00-0.317E-02
CGA:  27    -0.931979117025E+02   -0.91884E-02   -0.92267E-02 10752   0.311E+00-0.491E-03
CGA:  28    -0.932058763834E+02   -0.79647E-02   -0.81922E-02 10752   0.120E+00-0.766E-02
CGA:  29    -0.932097956565E+02   -0.39193E-02   -0.39479E-02 10752   0.147E+00-0.755E-03
CGA:  30    -0.932168452584E+02   -0.70496E-02   -0.70975E-02 10752   0.144E+00-0.386E-03
CGA:  31    -0.932207692475E+02   -0.39240E-02   -0.39825E-02 10752   0.103E+00-0.157E-02
CGA:  32    -0.932264183002E+02   -0.56491E-02   -0.56772E-02 10752   0.139E+00 0.191E-03
CGA:  33    -0.932297312326E+02   -0.33129E-02   -0.33461E-02 10752   0.327E-01-0.867E-03
CGA:  34    -0.932309056114E+02   -0.11744E-02   -0.11782E-02 10752   0.421E-01-0.384E-04
CGA:  35    -0.932336351074E+02   -0.27295E-02   -0.27312E-02 10752   0.513E-01 0.651E-04
CGA:  36    -0.932351038290E+02   -0.14687E-02   -0.14775E-02 10752   0.312E-01-0.261E-03
SDA:  37    -0.932366767794E+02   -0.15730E-02   -0.15740E-02 10752   0.266E-01-0.249E-04
CGA:  38    -0.932372970534E+02   -0.62027E-03   -0.61981E-03 10752   0.418E-02 0.299E-04
CGA:  39    -0.932384483170E+02   -0.11513E-02   -0.11389E-02 10752   0.703E-02 0.682E-04
CGA:  40    -0.932387626408E+02   -0.31432E-03   -0.31467E-03 10752   0.462E-02 0.307E-05
CGA:  41    -0.932390116524E+02   -0.24901E-03   -0.24882E-03 10752   0.227E-02 0.112E-05
CGA:  42    -0.932394070040E+02   -0.39535E-03   -0.39479E-03 10752   0.106E-02 0.668E-05
CGA:  43    -0.932395458462E+02   -0.13884E-03   -0.13775E-03 10752   0.201E-02 0.230E-04
CGA:  44    -0.932396416498E+02   -0.95804E-04   -0.96546E-04 10752   0.137E-02 0.222E-04
CGA:  45    -0.932397760635E+02   -0.13441E-03   -0.13374E-03 10752   0.527E-03 0.415E-04
CGA:  46    -0.932398162723E+02   -0.40209E-04   -0.40271E-04 10752   0.111E-02 0.101E-04
CGA:  47    -0.932399134200E+02   -0.97148E-04   -0.97083E-04 10752   0.199E-03 0.144E-04
CGA:  48    -0.932399381267E+02   -0.24707E-04   -0.25758E-04 10752   0.314E-03-0.215E-04
CGA:  49    -0.932399760806E+02   -0.37954E-04   -0.42734E-04 10752   0.949E-03-0.685E-04
CGA:  50    -0.932400000743E+02   -0.23994E-04   -0.21731E-04 10752   0.820E-04-0.382E-04
CGA:  51    -0.932400021703E+02   -0.20959E-05   -0.19640E-05 10752   0.428E-04-0.149E-05
CGA:  52    -0.932400068237E+02   -0.46534E-05   -0.47148E-05 10752   0.954E-04-0.130E-05
CGA:  53    -0.932400098071E+02   -0.29834E-05   -0.29956E-05 10752   0.473E-04 0.919E-06
CGA:  54    -0.932400119913E+02   -0.21842E-05   -0.22871E-05 10752   0.372E-04 0.385E-05
CGA:  55    -0.932400130960E+02   -0.11047E-05   -0.12699E-05 10752   0.217E-04 0.417E-05
CGA:  56    -0.932400143678E+02   -0.12719E-05   -0.13907E-05 10752   0.246E-04 0.701E-05
CGA:  57    -0.932400151508E+02   -0.78291E-06   -0.98111E-06 10752   0.412E-05 0.495E-05
   1 F= -.93240015E+02 E0= -.93243590E+02  d E =-.932400E+02  mag=     8.1348
       N       E                     dE             d eps       ncg     rms          ort
SDA:   1    -0.932318919116E+02    0.81225E-02    0.00000E+00 10752   0.245E-01 0.000E+00
CGA:   2    -0.932348223689E+02   -0.29305E-02   -0.29305E-02 10752   0.527E-01-0.180E-05
CGA:   3    -0.932371105509E+02   -0.22882E-02   -0.22880E-02 10752   0.258E-01 0.914E-05
CGA:   4    -0.932389276322E+02   -0.18171E-02   -0.18171E-02 10752   0.690E-02 0.538E-05
CGA:   5    -0.932393773644E+02   -0.44973E-03   -0.44976E-03 10752   0.934E-02 0.130E-05
CGA:   6    -0.932399146080E+02   -0.53724E-03   -0.53726E-03 10752   0.259E-02 0.389E-05
CGA:   7    -0.932400995107E+02   -0.18490E-03   -0.18490E-03 10752   0.446E-03-0.126E-05
CGA:   8    -0.932401987447E+02   -0.99234E-04   -0.99723E-04 10752   0.977E-03-0.322E-05
CGA:   9    -0.932402256067E+02   -0.26862E-04   -0.26810E-04 10752   0.121E-03-0.129E-05
CGA:  10    -0.932402426153E+02   -0.17009E-04   -0.16916E-04 10752   0.173E-03 0.147E-05
CGA:  11    -0.932402507777E+02   -0.81624E-05   -0.81945E-05 10752   0.130E-03 0.939E-06
CGA:  12    -0.932402575738E+02   -0.67961E-05   -0.68141E-05 10752   0.313E-04 0.679E-06
CGA:  13    -0.932402624650E+02   -0.48912E-05   -0.48752E-05 10752   0.155E-04 0.199E-06
CGA:  14    -0.932402639246E+02   -0.14596E-05   -0.14619E-05 10752   0.846E-05-0.262E-06
CGA:  15    -0.932402644116E+02   -0.48697E-06   -0.48093E-06 10752   0.123E-04-0.218E-06
   2 F= -.93240264E+02 E0= -.93243831E+02  d E =-.249261E-03  mag=     8.1301
       N       E                     dE             d eps       ncg     rms          ort
SDA:   1    -0.932157647244E+02    0.24499E-01    0.00000E+00 10752   0.816E-01 0.000E+00
CGA:   2    -0.932223259534E+02   -0.65612E-02   -0.65612E-02 10752   0.145E+00-0.345E-04
CGA:   3    -0.932303987857E+02   -0.80728E-02   -0.80742E-02 10752   0.775E-01 0.202E-05
CGA:   4    -0.932362915541E+02   -0.58928E-02   -0.58930E-02 10752   0.297E-01 0.342E-04
CGA:   5    -0.932374274793E+02   -0.11359E-02   -0.11354E-02 10752   0.195E-01 0.131E-04
CGA:   6    -0.932393528106E+02   -0.19253E-02   -0.19250E-02 10752   0.817E-02 0.145E-04
CGA:   7    -0.932399642397E+02   -0.61143E-03   -0.61143E-03 10752   0.154E-02 0.224E-05
CGA:   8    -0.932400740674E+02   -0.10983E-03   -0.10982E-03 10752   0.302E-02-0.132E-05
CGA:   9    -0.932403197675E+02   -0.24570E-03   -0.24571E-03 10752   0.553E-03-0.145E-05
CGA:  10    -0.932403477985E+02   -0.28031E-04   -0.28041E-04 10752   0.520E-03 0.438E-06
CGA:  11    -0.932403794752E+02   -0.31677E-04   -0.31684E-04 10752   0.360E-03 0.603E-06
CGA:  12    -0.932404177898E+02   -0.38315E-04   -0.38268E-04 10752   0.854E-04 0.159E-05
CGA:  13    -0.932404266169E+02   -0.88271E-05   -0.88259E-05 10752   0.158E-03 0.622E-07
CGA:  14    -0.932404331386E+02   -0.65217E-05   -0.65309E-05 10752   0.374E-04 0.281E-06
CGA:  15    -0.932404364498E+02   -0.33112E-05   -0.33139E-05 10752   0.251E-04-0.192E-06
CGA:  16    -0.932404375973E+02   -0.11474E-05   -0.11388E-05 10752   0.243E-04-0.270E-06
CGA:  17    -0.932404399256E+02   -0.23284E-05   -0.23423E-05 10752   0.349E-05-0.684E-06
CGA:  18    -0.932404403517E+02   -0.42612E-06   -0.42455E-06 10752   0.721E-05 0.321E-07
   3 F= -.93240440E+02 E0= -.93243980E+02  d E =-.425201E-03  mag=     8.1286
       N       E                     dE             d eps       ncg     rms          ort
SDA:   1    -0.932400517946E+02    0.38813E-03    0.00000E+00 10752   0.763E-02 0.000E+00
CGA:   2    -0.932402175890E+02   -0.16579E-03   -0.16572E-03 10752   0.822E-03 0.636E-05
CGA:   3    -0.932402903141E+02   -0.72725E-04   -0.72718E-04 10752   0.836E-03 0.478E-06
CGA:   4    -0.932403590498E+02   -0.68736E-04   -0.68737E-04 10752   0.124E-02-0.239E-06
CGA:   5    -0.932404094513E+02   -0.50402E-04   -0.50406E-04 10752   0.104E-03 0.327E-06
CGA:   6    -0.932404331151E+02   -0.23664E-04   -0.23852E-04 10752   0.400E-04-0.122E-05
CGA:   7    -0.932404359004E+02   -0.27854E-05   -0.27842E-05 10752   0.137E-04-0.108E-06
CGA:   8    -0.932404383706E+02   -0.24702E-05   -0.24430E-05 10752   0.249E-04 0.274E-06
CGA:   9    -0.932404390927E+02   -0.72204E-06   -0.72871E-06 10752   0.459E-05 0.108E-06
   4 F= -.93240439E+02 E0= -.93243978E+02  d E =-.423942E-03  mag=     8.1283
       N       E                     dE             d eps       ncg     rms          ort
SDA:   1    -0.932379193782E+02    0.25190E-02    0.00000E+00 10752   0.813E-02 0.000E+00
CGA:   2    -0.932383965866E+02   -0.47721E-03   -0.47722E-03 10752   0.127E-01-0.263E-05
CGA:   3    -0.932397634128E+02   -0.13668E-02   -0.13668E-02 10752   0.345E-02 0.134E-06
CGA:   4    -0.932400827985E+02   -0.31939E-03   -0.31937E-03 10752   0.203E-02 0.141E-05
CGA:   5    -0.932403437088E+02   -0.26091E-03   -0.26086E-03 10752   0.153E-02 0.943E-06
CGA:   6    -0.932403852517E+02   -0.41543E-04   -0.41535E-04 10752   0.373E-03-0.748E-06
CGA:   7    -0.932404221339E+02   -0.36882E-04   -0.36893E-04 10752   0.308E-03-0.678E-06
CGA:   8    -0.932404481394E+02   -0.26005E-04   -0.26005E-04 10752   0.450E-03-0.414E-06
CGA:   9    -0.932404658760E+02   -0.17737E-04   -0.17703E-04 10752   0.510E-04-0.700E-06
CGA:  10    -0.932404756047E+02   -0.97287E-05   -0.97036E-05 10752   0.505E-04 0.226E-06
CGA:  11    -0.932404796200E+02   -0.40153E-05   -0.40157E-05 10752   0.159E-04 0.128E-06
CGA:  12    -0.932404807608E+02   -0.11409E-05   -0.11445E-05 10752   0.253E-04 0.198E-06
CGA:  13    -0.932404821917E+02   -0.14309E-05   -0.14344E-05 10752   0.255E-05 0.118E-06
CGA:  14    -0.932404824861E+02   -0.29436E-06   -0.29551E-06 10752   0.694E-05-0.608E-07
   5 F= -.93240482E+02 E0= -.93244028E+02  d E =-.433934E-04  mag=     8.1342
       N       E                     dE             d eps       ncg     rms          ort
SDA:   1    -0.932382610732E+02    0.22211E-02    0.00000E+00 10752   0.113E-01 0.000E+00
CGA:   2    -0.932386746089E+02   -0.41354E-03   -0.41365E-03 10752   0.772E-02-0.628E-05
CGA:   3    -0.932395049142E+02   -0.83031E-03   -0.83032E-03 10752   0.643E-02-0.108E-05
CGA:   4    -0.932400289847E+02   -0.52407E-03   -0.52407E-03 10752   0.548E-02 0.132E-05
CGA:   5    -0.932401941713E+02   -0.16519E-03   -0.16521E-03 10752   0.120E-02-0.885E-07
CGA:   6    -0.932403688735E+02   -0.17470E-03   -0.17464E-03 10752   0.869E-03 0.101E-05
CGA:   7    -0.932404325128E+02   -0.63639E-04   -0.63638E-04 10752   0.207E-03-0.160E-06
CGA:   8    -0.932404426611E+02   -0.10148E-04   -0.10145E-04 10752   0.251E-03-0.111E-06
CGA:   9    -0.932404735162E+02   -0.30855E-04   -0.30922E-04 10752   0.749E-04-0.159E-05
CGA:  10    -0.932404766584E+02   -0.31422E-05   -0.31387E-05 10752   0.655E-04-0.891E-07
CGA:  11    -0.932404822425E+02   -0.55841E-05   -0.55826E-05 10752   0.377E-04 0.347E-06
CGA:  12    -0.932404855096E+02   -0.32671E-05   -0.32662E-05 10752   0.103E-04 0.232E-06
CGA:  13    -0.932404866473E+02   -0.11377E-05   -0.11316E-05 10752   0.181E-04 0.252E-06
CGA:  14    -0.932404873130E+02   -0.66574E-06   -0.66912E-06 10752   0.328E-05 0.746E-07
   6 F= -.93240487E+02 E0= -.93244039E+02  d E =-.482203E-04  mag=     8.1403
       N       E                     dE             d eps       ncg     rms          ort
SDA:   1    -0.932393786145E+02    0.11080E-02    0.00000E+00 10752   0.893E-02 0.000E+00
CGA:   2    -0.932396244464E+02   -0.24583E-03   -0.24583E-03 10752   0.315E-02-0.375E-05
CGA:   3    -0.932401247169E+02   -0.50027E-03   -0.50023E-03 10752   0.301E-02 0.377E-06
CGA:   4    -0.932402804597E+02   -0.15574E-03   -0.15577E-03 10752   0.252E-02 0.128E-05
CGA:   5    -0.932403874014E+02   -0.10694E-03   -0.10697E-03 10752   0.518E-03 0.736E-06
CGA:   6    -0.932404767847E+02   -0.89383E-04   -0.89250E-04 10752   0.184E-03 0.140E-05
CGA:   7    -0.932404849026E+02   -0.81179E-05   -0.81089E-05 10752   0.116E-03-0.255E-06
CGA:   8    -0.932404913484E+02   -0.64458E-05   -0.64438E-05 10752   0.693E-04-0.100E-06
CGA:   9    -0.932404988847E+02   -0.75362E-05   -0.75550E-05 10752   0.360E-04-0.655E-06
CGA:  10    -0.932404999165E+02   -0.10319E-05   -0.10271E-05 10752   0.131E-04-0.103E-06
CGA:  11    -0.932405018431E+02   -0.19266E-05   -0.19323E-05 10752   0.646E-05-0.537E-07
CGA:  12    -0.932405023791E+02   -0.53597E-06   -0.53645E-06 10752   0.477E-05 0.220E-07
   7 F= -.93240502E+02 E0= -.93244056E+02  d E =-.150661E-04  mag=     8.1441
       N       E                     dE             d eps       ncg     rms          ort
SDA:   1    -0.932355776933E+02    0.49241E-02    0.00000E+00 10752   0.298E-01 0.000E+00
CGA:   2    -0.932364493775E+02   -0.87168E-03   -0.87214E-03 10752   0.157E-01-0.167E-04
CGA:   3    -0.932391910741E+02   -0.27417E-02   -0.27420E-02 10752   0.830E-02-0.389E-05
CGA:   4    -0.932397325041E+02   -0.54143E-03   -0.54151E-03 10752   0.597E-02 0.324E-05
CGA:   5    -0.932400068408E+02   -0.27434E-03   -0.27441E-03 10752   0.407E-02 0.526E-07
CGA:   6    -0.932403824018E+02   -0.37556E-03   -0.37553E-03 10752   0.745E-03 0.273E-05
CGA:   7    -0.932404173074E+02   -0.34906E-04   -0.34903E-04 10752   0.630E-03-0.881E-07
CGA:   8    -0.932404510957E+02   -0.33788E-04   -0.33771E-04 10752   0.301E-03-0.720E-06
CGA:   9    -0.932404905482E+02   -0.39453E-04   -0.39522E-04 10752   0.691E-04-0.126E-05
CGA:  10    -0.932404939639E+02   -0.34157E-05   -0.34123E-05 10752   0.758E-04-0.135E-06
CGA:  11    -0.932405005331E+02   -0.65692E-05   -0.65656E-05 10752   0.388E-04 0.266E-06
CGA:  12    -0.932405031807E+02   -0.26476E-05   -0.26476E-05 10752   0.249E-04 0.103E-06
CGA:  13    -0.932405041540E+02   -0.97326E-06   -0.97648E-06 10752   0.156E-04 0.553E-07
CGA:  14    -0.932405059805E+02   -0.18266E-05   -0.18142E-05 10752   0.284E-05 0.319E-06
CGA:  15    -0.932405063158E+02   -0.33524E-06   -0.33711E-06 10752   0.709E-05-0.452E-07
   8 F= -.93240506E+02 E0= -.93244063E+02  d E =-.190028E-04  mag=     8.1514
       N       E                     dE             d eps       ncg     rms          ort
SDA:   1    -0.932400684549E+02    0.43753E-03    0.00000E+00 10752   0.289E-02 0.000E+00
CGA:   2    -0.932401561002E+02   -0.87645E-04   -0.87642E-04 10752   0.133E-02 0.541E-06
CGA:   3    -0.932403027007E+02   -0.14660E-03   -0.14664E-03 10752   0.143E-02-0.135E-05
CGA:   4    -0.932404144362E+02   -0.11174E-03   -0.11174E-03 10752   0.132E-02-0.616E-06
CGA:   5    -0.932404562648E+02   -0.41829E-04   -0.41848E-04 10752   0.229E-03 0.847E-06
CGA:   6    -0.932404898274E+02   -0.33563E-04   -0.33494E-04 10752   0.194E-03 0.976E-06
CGA:   7    -0.932405086995E+02   -0.18872E-04   -0.18860E-04 10752   0.326E-04 0.687E-06
CGA:   8    -0.932405148806E+02   -0.61810E-05   -0.62412E-05 10752   0.927E-04-0.533E-06
CGA:   9    -0.932405179584E+02   -0.30778E-05   -0.30745E-05 10752   0.181E-04-0.621E-07
CGA:  10    -0.932405192767E+02   -0.13184E-05   -0.13191E-05 10752   0.105E-04 0.675E-07
CGA:  11    -0.932405201032E+02   -0.82649E-06   -0.82575E-06 10752   0.175E-04 0.102E-06
   9 F= -.93240520E+02 E0= -.93244072E+02  d E =-.137875E-04  mag=     8.1502
       N       E                     dE             d eps       ncg     rms          ort
SDA:   1    -0.932404704134E+02    0.48863E-04    0.00000E+00 10752   0.279E-03 0.000E+00
CGA:   2    -0.932404792225E+02   -0.88091E-05   -0.88131E-05 10752   0.170E-03 0.628E-07
CGA:   3    -0.932405011488E+02   -0.21926E-04   -0.21929E-04 10752   0.148E-03-0.325E-07
CGA:   4    -0.932405125728E+02   -0.11424E-04   -0.11424E-04 10752   0.509E-04 0.358E-07
CGA:   5    -0.932405150760E+02   -0.25032E-05   -0.25074E-05 10752   0.539E-04 0.164E-06
CGA:   6    -0.932405202420E+02   -0.51660E-05   -0.51666E-05 10752   0.856E-05-0.111E-07
CGA:   7    -0.932405218820E+02   -0.16400E-05   -0.16299E-05 10752   0.124E-04 0.109E-06
CGA:   8    -0.932405223975E+02   -0.51548E-06   -0.51622E-06 10752   0.725E-05 0.823E-08
  10 F= -.93240522E+02 E0= -.93244073E+02  d E =-.160817E-04  mag=     8.1493
       N       E                     dE             d eps       ncg     rms          ort
SDA:   1    -0.932402966684E+02    0.22521E-03    0.00000E+00 10752   0.153E-02 0.000E+00
CGA:   2    -0.932403440794E+02   -0.47411E-04   -0.47404E-04 10752   0.737E-03 0.171E-06
CGA:   3    -0.932404002463E+02   -0.56167E-04   -0.56167E-04 10752   0.605E-03 0.647E-07
CGA:   4    -0.932404826756E+02   -0.82429E-04   -0.82368E-04 10752   0.141E-03 0.107E-05
CGA:   5    -0.932404960719E+02   -0.13396E-04   -0.13390E-04 10752   0.228E-03 0.466E-06
CGA:   6    -0.932405068659E+02   -0.10794E-04   -0.10792E-04 10752   0.107E-03-0.700E-07
CGA:   7    -0.932405156727E+02   -0.88068E-05   -0.88053E-05 10752   0.209E-04 0.141E-06
CGA:   8    -0.932405176406E+02   -0.19678E-05   -0.19682E-05 10752   0.527E-04-0.112E-06
CGA:   9    -0.932405204699E+02   -0.28294E-05   -0.28225E-05 10752   0.143E-04-0.212E-06
CGA:  10    -0.932405214482E+02   -0.97830E-06   -0.97857E-06 10752   0.397E-05-0.231E-07
  11 F= -.93240521E+02 E0= -.93244068E+02  d E =-.151324E-04  mag=     8.1476
       N       E                     dE             d eps       ncg     rms          ort
SDA:   1    -0.932395822396E+02    0.93823E-03    0.00000E+00 10752   0.183E-01 0.000E+00
CGA:   2    -0.932399826509E+02   -0.40041E-03   -0.40078E-03 10752   0.164E-02-0.213E-04
CGA:   3    -0.932402249076E+02   -0.24226E-03   -0.24234E-03 10752   0.216E-02-0.131E-05
CGA:   4    -0.932403740117E+02   -0.14910E-03   -0.14908E-03 10752   0.198E-02-0.132E-05
CGA:   5    -0.932404375438E+02   -0.63532E-04   -0.63504E-04 10752   0.324E-03-0.513E-06
CGA:   6    -0.932404923239E+02   -0.54780E-04   -0.54724E-04 10752   0.196E-03 0.662E-06
CGA:   7    -0.932405056011E+02   -0.13277E-04   -0.13279E-04 10752   0.113E-03 0.108E-06
CGA:   8    -0.932405094773E+02   -0.38762E-05   -0.38880E-05 10752   0.407E-04 0.234E-06
CGA:   9    -0.932405159122E+02   -0.64349E-05   -0.64323E-05 10752   0.220E-04 0.465E-07
CGA:  10    -0.932405168412E+02   -0.92899E-06   -0.92695E-06 10752   0.174E-04-0.318E-07
CGA:  11    -0.932405179945E+02   -0.11533E-05   -0.11536E-05 10752   0.104E-04 0.493E-07
CGA:  12    -0.932405190277E+02   -0.10332E-05   -0.10326E-05 10752   0.220E-05 0.935E-07
CGA:  13    -0.932405193123E+02   -0.28457E-06   -0.28459E-06 10752   0.679E-05-0.167E-07
  12 F= -.93240519E+02 E0= -.93244056E+02  d E =0.213597E-05  mag=     8.1441
       N       E                     dE             d eps       ncg     rms          ort
SDA:   1    -0.932404412892E+02    0.77738E-04    0.00000E+00 10752   0.115E-02 0.000E+00
CGA:   2    -0.932404673507E+02   -0.26061E-04   -0.26055E-04 10752   0.214E-03-0.360E-06
CGA:   3    -0.932404889793E+02   -0.21629E-04   -0.21638E-04 10752   0.163E-03-0.444E-06
CGA:   4    -0.932405119182E+02   -0.22939E-04   -0.22972E-04 10752   0.619E-04-0.529E-06
CGA:   5    -0.932405151080E+02   -0.31899E-05   -0.31832E-05 10752   0.541E-04-0.199E-06
CGA:   6    -0.932405181926E+02   -0.30846E-05   -0.30863E-05 10752   0.295E-04 0.485E-07
CGA:   7    -0.932405208193E+02   -0.26267E-05   -0.26264E-05 10752   0.931E-05 0.773E-07
CGA:   8    -0.932405210744E+02   -0.25506E-06   -0.25455E-06 10752   0.311E-05-0.679E-08
  13 F= -.93240521E+02 E0= -.93244059E+02  d E =0.373864E-06  mag=     8.1444
