 vasp.6.4.3 19Mar24 (build Mar 26 2024 14:05:37) complex                        
  
 executed on             LinuxIFC date 2024.12.17  00:14:25
 running  128 mpi-ranks, on    1 nodes
 distrk:  each k-point on   32 cores,    4 groups
 distr:  one band on NCORE=   1 cores,   32 groups


--------------------------------------------------------------------------------------------------------


 INCAR:
   ALGO = Normal
   EDIFF = 1e-06
   EDIFFG = -0.01
   ENCUT = 520
   GGA = Pe
   IBRION = -1
   ISIF = 4
   ISMEAR = -5
   ISPIN = 2
   KPAR = 4
   LCHARG = True
   LORBIT = 11
   LREAL = False
   LWAVE = False
   MAGMOM = 1*-2.321 1*2.505 1*2.438 1*-2.385 1*2.423 1*2.611 1*-2.321 1*2.505 1*2.438 1*-0.043 1*0.066 1*0.256
   NELM = 200
   NSW = 0
   PREC = Accurate
   SIGMA = 0.2

 POTCAR:    PAW_PBE Fe_pv 02Aug2007               
 POTCAR:    PAW_PBE Pt 04Feb2005                  
 -----------------------------------------------------------------------------
|                                                                             |
|           W    W    AA    RRRRR   N    N  II  N    N   GGGG   !!!           |
|           W    W   A  A   R    R  NN   N  II  NN   N  G    G  !!!           |
|           W    W  A    A  R    R  N N  N  II  N N  N  G       !!!           |
|           W WW W  AAAAAA  RRRRR   N  N N  II  N  N N  G  GGG   !            |
|           WW  WW  A    A  R   R   N   NN  II  N   NN  G    G                |
|           W    W  A    A  R    R  N    N  II  N    N   GGGG   !!!           |
|                                                                             |
|     For optimal performance we recommend to set                             |
|       NCORE = 2 up to number-of-cores-per-socket                            |
|     NCORE specifies how many cores store one orbital (NPAR=cpu/NCORE).      |
|     This setting can greatly improve the performance of VASP for DFT.       |
|     The default, NCORE=1 might be grossly inefficient on modern             |
|     multi-core architectures or massively parallel machines. Do your        |
|     own testing! More info at https://www.vasp.at/wiki/index.php/NCORE      |
|     Unfortunately you need to use the default for GW and RPA                |
|     calculations (for HF NCORE is supported but not extensively tested      |
|     yet).                                                                   |
|                                                                             |
 -----------------------------------------------------------------------------

 POTCAR:    PAW_PBE Fe_pv 02Aug2007               
   SHA256 =  5d22e414b1f82158bf2c7ecb8b97b28fd0923e48cadc1c3bf74d524558f5dd32 Fe_pv/POTCAR          
   COPYR  = (c) Copyright 02Aug2007 Georg Kresse                                                    
   COPYR  = This file is part of the software VASP. Any use, copying, and all other rights are regul
   COPYR  = If you do not have a valid VASP license, you may not use, copy or distribute this file. 
   VRHFIN =Fe:  3pd7s1                                                                              
   LEXCH  = PE                                                                                      
   EATOM  =  2457.4239 eV,  180.6156 Ry                                                             
                                                                                                    
   TITEL  = PAW_PBE Fe_pv 02Aug2007                                                                 
   LULTRA =        F    use ultrasoft PP ?                                                          
   IUNSCR =        1    unscreen: 0-lin 1-nonlin 2-no                                               
   RPACOR =    1.750    partial core radius                                                         
   POMASS =   55.847; ZVAL   =   14.000    mass and valenz                                          
   RCORE  =    2.200    outmost cutoff radius                                                       
   RWIGS  =    2.200; RWIGS  =    1.164    wigner-seitz radius (au A)                               
   ENMAX  =  293.238; ENMIN  =  219.928 eV                                                          
   ICORE  =        3    local potential                                                             
   LCOR   =        T    correct aug charges                                                         
   LPAW   =        T    paw PP                                                                      
   EAUG   =  578.342                                                                                
   DEXC   =    0.000                                                                                
   RMAX   =    2.249    core radius for proj-oper                                                   
   RAUG   =    1.300    factor for augmentation sphere                                              
   RDEP   =    2.296    radius for radial grids                                                     
   RDEPT  =    1.766    core radius for aug-charge                                                  
                                                                                                    
   Atomic configuration                                                                             
    8 entries                                                                                       
     n  l   j            E        occ.                                                              
     1  0  0.50     -6993.8440   2.0000                                                             
     2  0  0.50      -814.6047   2.0000                                                             
     2  1  1.50      -693.3689   6.0000                                                             
     3  0  0.50       -89.4732   2.0000                                                             
     3  1  1.50       -55.6373   6.0000                                                             
     3  2  2.50        -3.8151   7.0000                                                             
     4  0  0.50        -4.2551   1.0000                                                             
     4  3  2.50        -1.3606   0.0000                                                             
   Description                                                                                      
     l       E           TYP  RCUT    TYP  RCUT                                                     
     1    -55.6372668     23  2.000                                                                 
     1     -5.4423304     23  2.000                                                                 
     2     -3.8151096     23  2.200                                                                 
     2     -5.1756922     23  2.200                                                                 
     0     -4.2550951     23  2.200                                                                 
     0     27.2116520     23  2.200                                                                 
     3     -1.3605826     23  2.200                                                                 
  local pseudopotential read in
  partial core-charges read in
  partial kinetic energy density read in
  atomic valenz-charges read in
  non local Contribution for L=           1  read in
    real space projection operators read in
  non local Contribution for L=           1  read in
    real space projection operators read in
  non local Contribution for L=           2  read in
    real space projection operators read in
  non local Contribution for L=           2  read in
    real space projection operators read in
  non local Contribution for L=           0  read in
    real space projection operators read in
  non local Contribution for L=           0  read in
    real space projection operators read in
    PAW grid and wavefunctions read in
 
   number of l-projection  operators is LMAX  =           6
   number of lm-projection operators is LMMAX =          18
 
 POTCAR:    PAW_PBE Pt 04Feb2005                  
   SHA256 =  3ed90460adef76debcff1cfb73ee1349b515b1a3db03439735b44de3a8db7dc8 Pt/POTCAR             
   COPYR  = (c) Copyright 04Feb2005 Georg Kresse                                                    
   COPYR  = This file is part of the software VASP. Any use, copying, and all other rights are regul
   COPYR  = If you do not have a valid VASP license, you may not use, copy or distribute this file. 
   VRHFIN =Pt: s1d9                                                                                 
   LEXCH  = PE                                                                                      
   EATOM  =   729.1176 eV,   53.5886 Ry                                                             
                                                                                                    
   TITEL  = PAW_PBE Pt 04Feb2005                                                                    
   LULTRA =        F    use ultrasoft PP ?                                                          
   IUNSCR =        1    unscreen: 0-lin 1-nonlin 2-no                                               
   RPACOR =    2.330    partial core radius                                                         
   POMASS =  195.080; ZVAL   =   10.000    mass and valenz                                          
   RCORE  =    2.600    outmost cutoff radius                                                       
   RWIGS  =    2.750; RWIGS  =    1.455    wigner-seitz radius (au A)                               
   ENMAX  =  230.283; ENMIN  =  172.712 eV                                                          
   ICORE  =        3    local potential                                                             
   LCOR   =        T    correct aug charges                                                         
   LPAW   =        T    paw PP                                                                      
   EAUG   =  358.966                                                                                
   DEXC   =    0.000                                                                                
   RMAX   =    2.658    core radius for proj-oper                                                   
   RAUG   =    1.300    factor for augmentation sphere                                              
   RDEP   =    2.761    radius for radial grids                                                     
   RDEPT  =    2.203    core radius for aug-charge                                                  
                                                                                                    
   Atomic configuration                                                                             
   16 entries                                                                                       
     n  l   j            E        occ.                                                              
     1  0  0.50    -78401.1885   2.0000                                                             
     2  0  0.50    -13770.7750   2.0000                                                             
     2  1  1.50    -11931.0468   6.0000                                                             
     3  0  0.50     -3234.7234   2.0000                                                             
     3  1  1.50     -2699.2216   6.0000                                                             
     3  2  2.50     -2119.5714  10.0000                                                             
     4  0  0.50      -695.1528   2.0000                                                             
     4  1  1.50      -519.6034   6.0000                                                             
     4  2  2.50      -306.6786  10.0000                                                             
     4  3  3.50       -70.1041  14.0000                                                             
     5  0  0.50      -101.7747   2.0000                                                             
     5  1  1.50       -55.9873   6.0000                                                             
     5  2  2.50        -6.1423   9.0000                                                             
     6  0  0.50        -5.6573   1.0000                                                             
     6  1  1.50        -6.8029   0.0000                                                             
     5  3  2.50        -1.3606   0.0000                                                             
   Description                                                                                      
     l       E           TYP  RCUT    TYP  RCUT                                                     
     2     -6.1423404     23  2.500                                                                 
     2     -7.5029230     23  2.500                                                                 
     0     -5.6573207     23  2.500                                                                 
     0      0.7416693     23  2.500                                                                 
     1     -2.7211652     23  2.600                                                                 
     1     20.4087390     23  2.600                                                                 
     3     -1.3605826     23  2.500                                                                 
  local pseudopotential read in
  partial core-charges read in
  partial kinetic energy density read in
  atomic valenz-charges read in
  non local Contribution for L=           2  read in
    real space projection operators read in
  non local Contribution for L=           2  read in
    real space projection operators read in
  non local Contribution for L=           0  read in
    real space projection operators read in
  non local Contribution for L=           0  read in
    real space projection operators read in
  non local Contribution for L=           1  read in
    real space projection operators read in
  non local Contribution for L=           1  read in
    real space projection operators read in
    PAW grid and wavefunctions read in
 
   number of l-projection  operators is LMAX  =           6
   number of lm-projection operators is LMMAX =          18
 
  PAW_PBE Fe_pv 02Aug2007               :
 energy of atom  1       EATOM=-2457.4239
 kinetic energy error for atom=    0.0062 (will be added to EATOM!!)
  PAW_PBE Pt 04Feb2005                  :
 energy of atom  2       EATOM= -729.1176
 kinetic energy error for atom=    0.0032 (will be added to EATOM!!)
 
 
 POSCAR: Fe9 Pt3
  positions in direct lattice
  velocities in cartesian coordinates


 exchange-correlation table for PE
   RHO(1)=    0.500       N(1)  =     2000
   RHO(2)=  100.500       N(2)  =     4000
 


--------------------------------------------------------------------------------------------------------


 ion  position               nearest neighbor table
   1  0.000  0.500  0.167-   4 2.56   4 2.56  11 2.57  11 2.57   7 2.58   7 2.58   7 2.58   7 2.58
                            10 2.61  10 2.61   5 2.62   5 2.62
   2  0.000  0.500  0.499-   5 2.57   5 2.57   8 2.58   8 2.58   8 2.58   8 2.58   6 2.59   6 2.59
                            12 2.60  12 2.60  11 2.62  11 2.62
   3  0.000  0.500  0.834-  10 2.58  10 2.58   9 2.58   9 2.58   9 2.58   9 2.58  12 2.60  12 2.60
                             6 2.62   6 2.62   4 2.62   4 2.62
   4  0.500  0.500  0.004-   1 2.56   7 2.56   7 2.56   1 2.56  10 2.58  10 2.58  10 2.58  10 2.58
                             9 2.62   3 2.62   9 2.62   3 2.62
   5  0.500  0.500  0.336-   2 2.57   8 2.57   8 2.57   2 2.57  11 2.58  11 2.58  11 2.58  11 2.58
                             1 2.62   7 2.62   1 2.62   7 2.62
   6  0.500  0.500  0.665-  12 2.58  12 2.58  12 2.58  12 2.58   8 2.59   2 2.59   2 2.59   8 2.59
                             9 2.62   3 2.62   9 2.62   3 2.62
   7  0.500  0.000  0.167-   4 2.56   4 2.56  11 2.57  11 2.57   1 2.58   1 2.58   1 2.58   1 2.58
                            10 2.61  10 2.61   5 2.62   5 2.62
   8  0.500  0.000  0.499-   5 2.57   5 2.57   2 2.58   2 2.58   2 2.58   2 2.58   6 2.59   6 2.59
                            12 2.60  12 2.60  11 2.62  11 2.62
   9  0.500  0.000  0.834-  10 2.58  10 2.58   3 2.58   3 2.58   3 2.58   3 2.58  12 2.60  12 2.60
                             6 2.62   6 2.62   4 2.62   4 2.62
  10  0.000  0.000  0.999-   3 2.58   9 2.58   3 2.58   9 2.58   4 2.58   4 2.58   4 2.58   4 2.58
                             1 2.61   7 2.61   7 2.61   1 2.61
  11  0.000  0.000  0.330-   1 2.57   7 2.57   1 2.57   7 2.57   5 2.58   5 2.58   5 2.58   5 2.58
                             2 2.62   2 2.62   8 2.62   8 2.62
  12  0.000  0.000  0.667-   6 2.58   6 2.58   6 2.58   6 2.58   2 2.60   8 2.60   8 2.60   2 2.60
                             3 2.60   3 2.60   9 2.60   9 2.60
 
  LATTYP: Found a simple tetragonal cell.
 ALAT       =     3.6544633736
 C/A-ratio  =     3.0324306297
  
  Lattice vectors:
  
 A1 = (   3.6544633736,   0.0000000000,   0.0000000000)
 A2 = (   0.0000000000,   3.6544633736,   0.0000000000)
 A3 = (   0.0000000000,   0.0000000000,  11.0819066690)


Analysis of symmetry for initial positions (statically):
=====================================================================
 Subroutine PRICEL returns:
 Original cell was already a primitive cell.
 

 Routine SETGRP: Setting up the symmetry group for a 
 simple tetragonal supercell.


 Subroutine GETGRP returns: Found  8 space group operations
 (whereof  8 operations were pure point group operations)
 out of a pool of 16 trial point group operations.


The static configuration has the point symmetry C_4v.


Analysis of symmetry for dynamics (positions and initial velocities):
=====================================================================
 Subroutine PRICEL returns:
 Original cell was already a primitive cell.
 

 Routine SETGRP: Setting up the symmetry group for a 
 simple tetragonal supercell.


 Subroutine GETGRP returns: Found  8 space group operations
 (whereof  8 operations were pure point group operations)
 out of a pool of 16 trial point group operations.


The dynamic configuration has the point symmetry C_4v.


Analysis of structural, dynamic, and magnetic symmetry:
=====================================================================
 Subroutine PRICEL returns:
 Original cell was already a primitive cell.
 

 Routine SETGRP: Setting up the symmetry group for a 
 simple tetragonal supercell.


 Subroutine GETGRP returns: Found  8 space group operations
 (whereof  8 operations were pure point group operations)
 out of a pool of 16 trial point group operations.


The overall configuration has the point symmetry C_4v.


 Subroutine INISYM returns: Found  8 space group operations
 (whereof  8 operations are pure point group operations),
 and found     1 'primitive' translations


----------------------------------------------------------------------------------------

                                     Primitive cell                                     

  volume of cell :     148.0000

  direct lattice vectors                    reciprocal lattice vectors
     3.654463374  0.000000000  0.000000000     0.273637987  0.000000000  0.000000000
     0.000000000  3.654463374  0.000000000     0.000000000  0.273637987  0.000000000
     0.000000000  0.000000000 11.081906669     0.000000000  0.000000000  0.090237179

  length of vectors
     3.654463374  3.654463374 11.081906669     0.273637987  0.273637987  0.090237179

  position of ions in fractional coordinates (direct lattice)
     0.000000000  0.500000000  0.166618749
     0.000000000  0.500000000  0.499191176
     0.000000000  0.500000000  0.834209772
     0.500000000  0.500000000  0.004205801
     0.500000000  0.500000000  0.335843569
     0.500000000  0.500000000  0.664559866
     0.500000000  0.000000000  0.166618749
     0.500000000  0.000000000  0.499191176
     0.500000000  0.000000000  0.834209772
     0.000000000  0.000000000  0.998712300
     0.000000000  0.000000000  0.329969457
     0.000000000  0.000000000  0.666669613

  ion indices of the primitive-cell ions
   primitive index   ion index
                 1           1
                 2           2
                 3           3
                 4           4
                 5           5
                 6           6
                 7           7
                 8           8
                 9           9
                10          10
                11          11
                12          12

----------------------------------------------------------------------------------------

 
 
 KPOINTS: pymatgen with grid density = 8800 / numb

Automatic generation of k-mesh.
 Grid dimensions read from file:
 generate k-points for:   13   13    4

 Generating k-lattice:

  Cartesian coordinates                     Fractional coordinates (reciprocal lattice)
     0.021049076  0.000000000  0.000000000     0.076923077  0.000000000  0.000000000
     0.000000000  0.021049076  0.000000000     0.000000000  0.076923077  0.000000000
     0.000000000  0.000000000  0.022559295     0.000000000  0.000000000  0.250000000

  Length of vectors
     0.021049076  0.021049076  0.022559295

  Shift w.r.t. Gamma in fractional coordinates (k-lattice)
     0.000000000  0.000000000  0.000000000

 TETIRR: Found   1010 inequivalent tetrahedra from     4056
 
 Subroutine IBZKPT returns following result:
 ===========================================
 
 Found     84 irreducible k-points:
 
 Following reciprocal coordinates:
            Coordinates               Weight
  0.000000  0.000000  0.000000      1.000000
  0.076923  0.000000  0.000000      4.000000
  0.153846  0.000000  0.000000      4.000000
  0.230769  0.000000  0.000000      4.000000
  0.307692  0.000000  0.000000      4.000000
  0.384615  0.000000  0.000000      4.000000
  0.461538  0.000000  0.000000      4.000000
  0.076923  0.076923  0.000000      4.000000
  0.153846  0.076923  0.000000      8.000000
  0.230769  0.076923  0.000000      8.000000
  0.307692  0.076923  0.000000      8.000000
  0.384615  0.076923  0.000000      8.000000
  0.461538  0.076923  0.000000      8.000000
  0.153846  0.153846  0.000000      4.000000
  0.230769  0.153846  0.000000      8.000000
  0.307692  0.153846  0.000000      8.000000
  0.384615  0.153846  0.000000      8.000000
  0.461538  0.153846  0.000000      8.000000
  0.230769  0.230769  0.000000      4.000000
  0.307692  0.230769  0.000000      8.000000
  0.384615  0.230769  0.000000      8.000000
  0.461538  0.230769  0.000000      8.000000
  0.307692  0.307692  0.000000      4.000000
  0.384615  0.307692  0.000000      8.000000
  0.461538  0.307692  0.000000      8.000000
  0.384615  0.384615  0.000000      4.000000
  0.461538  0.384615  0.000000      8.000000
  0.461538  0.461538  0.000000      4.000000
  0.000000  0.000000  0.250000      2.000000
  0.076923  0.000000  0.250000      8.000000
  0.153846  0.000000  0.250000      8.000000
  0.230769  0.000000  0.250000      8.000000
  0.307692  0.000000  0.250000      8.000000
  0.384615  0.000000  0.250000      8.000000
  0.461538  0.000000  0.250000      8.000000
  0.076923  0.076923  0.250000      8.000000
  0.153846  0.076923  0.250000     16.000000
  0.230769  0.076923  0.250000     16.000000
  0.307692  0.076923  0.250000     16.000000
  0.384615  0.076923  0.250000     16.000000
  0.461538  0.076923  0.250000     16.000000
  0.153846  0.153846  0.250000      8.000000
  0.230769  0.153846  0.250000     16.000000
  0.307692  0.153846  0.250000     16.000000
  0.384615  0.153846  0.250000     16.000000
  0.461538  0.153846  0.250000     16.000000
  0.230769  0.230769  0.250000      8.000000
  0.307692  0.230769  0.250000     16.000000
  0.384615  0.230769  0.250000     16.000000
  0.461538  0.230769  0.250000     16.000000
  0.307692  0.307692  0.250000      8.000000
  0.384615  0.307692  0.250000     16.000000
  0.461538  0.307692  0.250000     16.000000
  0.384615  0.384615  0.250000      8.000000
  0.461538  0.384615  0.250000     16.000000
  0.461538  0.461538  0.250000      8.000000
  0.000000  0.000000  0.500000      1.000000
  0.076923  0.000000  0.500000      4.000000
  0.153846  0.000000  0.500000      4.000000
  0.230769  0.000000  0.500000      4.000000
  0.307692  0.000000  0.500000      4.000000
  0.384615  0.000000  0.500000      4.000000
  0.461538  0.000000  0.500000      4.000000
  0.076923  0.076923  0.500000      4.000000
  0.153846  0.076923  0.500000      8.000000
  0.230769  0.076923  0.500000      8.000000
  0.307692  0.076923  0.500000      8.000000
  0.384615  0.076923  0.500000      8.000000
  0.461538  0.076923  0.500000      8.000000
  0.153846  0.153846  0.500000      4.000000
  0.230769  0.153846  0.500000      8.000000
  0.307692  0.153846  0.500000      8.000000
  0.384615  0.153846  0.500000      8.000000
  0.461538  0.153846  0.500000      8.000000
  0.230769  0.230769  0.500000      4.000000
  0.307692  0.230769  0.500000      8.000000
  0.384615  0.230769  0.500000      8.000000
  0.461538  0.230769  0.500000      8.000000
  0.307692  0.307692  0.500000      4.000000
  0.384615  0.307692  0.500000      8.000000
  0.461538  0.307692  0.500000      8.000000
  0.384615  0.384615  0.500000      4.000000
  0.461538  0.384615  0.500000      8.000000
  0.461538  0.461538  0.500000      4.000000
 
 Following cartesian coordinates:
            Coordinates               Weight
  0.000000  0.000000  0.000000      1.000000
  0.021049  0.000000  0.000000      4.000000
  0.042098  0.000000  0.000000      4.000000
  0.063147  0.000000  0.000000      4.000000
  0.084196  0.000000  0.000000      4.000000
  0.105245  0.000000  0.000000      4.000000
  0.126294  0.000000  0.000000      4.000000
  0.021049  0.021049  0.000000      4.000000
  0.042098  0.021049  0.000000      8.000000
  0.063147  0.021049  0.000000      8.000000
  0.084196  0.021049  0.000000      8.000000
  0.105245  0.021049  0.000000      8.000000
  0.126294  0.021049  0.000000      8.000000
  0.042098  0.042098  0.000000      4.000000
  0.063147  0.042098  0.000000      8.000000
  0.084196  0.042098  0.000000      8.000000
  0.105245  0.042098  0.000000      8.000000
  0.126294  0.042098  0.000000      8.000000
  0.063147  0.063147  0.000000      4.000000
  0.084196  0.063147  0.000000      8.000000
  0.105245  0.063147  0.000000      8.000000
  0.126294  0.063147  0.000000      8.000000
  0.084196  0.084196  0.000000      4.000000
  0.105245  0.084196  0.000000      8.000000
  0.126294  0.084196  0.000000      8.000000
  0.105245  0.105245  0.000000      4.000000
  0.126294  0.105245  0.000000      8.000000
  0.126294  0.126294  0.000000      4.000000
  0.000000  0.000000  0.022559      2.000000
  0.021049  0.000000  0.022559      8.000000
  0.042098  0.000000  0.022559      8.000000
  0.063147  0.000000  0.022559      8.000000
  0.084196  0.000000  0.022559      8.000000
  0.105245  0.000000  0.022559      8.000000
  0.126294  0.000000  0.022559      8.000000
  0.021049  0.021049  0.022559      8.000000
  0.042098  0.021049  0.022559     16.000000
  0.063147  0.021049  0.022559     16.000000
  0.084196  0.021049  0.022559     16.000000
  0.105245  0.021049  0.022559     16.000000
  0.126294  0.021049  0.022559     16.000000
  0.042098  0.042098  0.022559      8.000000
  0.063147  0.042098  0.022559     16.000000
  0.084196  0.042098  0.022559     16.000000
  0.105245  0.042098  0.022559     16.000000
  0.126294  0.042098  0.022559     16.000000
  0.063147  0.063147  0.022559      8.000000
  0.084196  0.063147  0.022559     16.000000
  0.105245  0.063147  0.022559     16.000000
  0.126294  0.063147  0.022559     16.000000
  0.084196  0.084196  0.022559      8.000000
  0.105245  0.084196  0.022559     16.000000
  0.126294  0.084196  0.022559     16.000000
  0.105245  0.105245  0.022559      8.000000
  0.126294  0.105245  0.022559     16.000000
  0.126294  0.126294  0.022559      8.000000
  0.000000  0.000000  0.045119      1.000000
  0.021049  0.000000  0.045119      4.000000
  0.042098  0.000000  0.045119      4.000000
  0.063147  0.000000  0.045119      4.000000
  0.084196  0.000000  0.045119      4.000000
  0.105245  0.000000  0.045119      4.000000
  0.126294  0.000000  0.045119      4.000000
  0.021049  0.021049  0.045119      4.000000
  0.042098  0.021049  0.045119      8.000000
  0.063147  0.021049  0.045119      8.000000
  0.084196  0.021049  0.045119      8.000000
  0.105245  0.021049  0.045119      8.000000
  0.126294  0.021049  0.045119      8.000000
  0.042098  0.042098  0.045119      4.000000
  0.063147  0.042098  0.045119      8.000000
  0.084196  0.042098  0.045119      8.000000
  0.105245  0.042098  0.045119      8.000000
  0.126294  0.042098  0.045119      8.000000
  0.063147  0.063147  0.045119      4.000000
  0.084196  0.063147  0.045119      8.000000
  0.105245  0.063147  0.045119      8.000000
  0.126294  0.063147  0.045119      8.000000
  0.084196  0.084196  0.045119      4.000000
  0.105245  0.084196  0.045119      8.000000
  0.126294  0.084196  0.045119      8.000000
  0.105245  0.105245  0.045119      4.000000
  0.126294  0.105245  0.045119      8.000000
  0.126294  0.126294  0.045119      4.000000
 


--------------------------------------------------------------------------------------------------------




 Dimension of arrays:
   k-points           NKPTS =     84   k-points in BZ     NKDIM =     84   number of bands    NBANDS=    128
   number of dos      NEDOS =    301   number of ions     NIONS =     12
   non local maximal  LDIM  =      6   non local SUM 2l+1 LMDIM =     18
   total plane-waves  NPLWV =  65856
   max r-space proj   IRMAX =      1   max aug-charges    IRDMAX=  27147
   dimension x,y,z NGX =    28 NGY =   28 NGZ =   84
   dimension x,y,z NGXF=    56 NGYF=   56 NGZF=  168
   support grid    NGXF=    56 NGYF=   56 NGZF=  168
   ions per type =               9   3
   NGX,Y,Z   is equivalent  to a cutoff of  12.74, 12.74, 12.60 a.u.
   NGXF,Y,Z  is equivalent  to a cutoff of  25.48, 25.48, 25.20 a.u.

 SYSTEM =  unknown system                          
 POSCAR =  Fe9 Pt3                                 

 Startparameter for this run:
   NWRITE =      2    write-flag & timer
   PREC   = accura    normal or accurate (medium, high low for compatibility)
   ISTART =      0    job   : 0-new  1-cont  2-samecut
   ICHARG =      2    charge: 1-file 2-atom 10-const
   ISPIN  =      2    spin polarized calculation?
   LNONCOLLINEAR =      F non collinear calculations
   LSORBIT =      F    spin-orbit coupling
   INIWAV =      1    electr: 0-lowe 1-rand  2-diag
   LASPH  =      F    aspherical Exc in radial PAW
 Electronic Relaxation 1
   ENCUT  =  520.0 eV  38.22 Ry    6.18 a.u.   6.79  6.79 20.61*2*pi/ulx,y,z
   ENINI  =  520.0     initial cutoff
   ENAUG  =  578.3 eV  augmentation charge cutoff
   NELM   =    200;   NELMIN=  2; NELMDL=  0     # of ELM steps 
   EDIFF  = 0.1E-05   stopping-criterion for ELM
   LREAL  =      F    real-space projection
   NLSPLINE    = F    spline interpolate recip. space projectors
   LCOMPAT=      F    compatible to vasp.4.4
   GGA_COMPAT  = T    GGA compatible to vasp.4.4-vasp.4.6
   LMAXPAW     = -100 max onsite density
   LMAXMIX     =    2 max onsite mixed and CHGCAR
   VOSKOWN=      0    Vosko Wilk Nusair interpolation
   ROPT   =    0.00000   0.00000
 Ionic relaxation
   EDIFFG = -.1E-01   stopping-criterion for IOM
   NSW    =      0    number of steps for IOM
   NBLOCK =      1;   KBLOCK =      1    inner block; outer block 
   IBRION =     -1    ionic relax: 0-MD 1-quasi-New 2-CG
   NFREE  =      0    steps in history (QN), initial steepest desc. (CG)
   ISIF   =      4    stress and relaxation
   IWAVPR =     10    prediction:  0-non 1-charg 2-wave 3-comb
   ISYM   =      2    0-nonsym 1-usesym 2-fastsym
   LCORR  =      T    Harris-Foulkes like correction to forces

   POTIM  = 0.5000    time-step for ionic-motion
   TEIN   =    0.0    initial temperature
   TEBEG  =    0.0;   TEEND  =   0.0 temperature during run
   SMASS  =  -3.00    Nose mass-parameter (am)
   estimated Nose-frequenzy (Omega)   =  0.10E-29 period in steps = 0.13E+47 mass=  -0.305E-27a.u.
   SCALEE = 1.0000    scale energy and forces
   NPACO  =    256;   APACO  = 10.0  distance and # of slots for P.C.
   PSTRESS=    0.0 pullay stress

  Mass of Ions in am
   POMASS =  55.85195.08
  Ionic Valenz
   ZVAL   =  14.00 10.00
  Atomic Wigner-Seitz radii
   RWIGS  =  -1.00 -1.00
  virtual crystal weights 
   VCA    =   1.00  1.00
   NELECT =     156.0000    total number of electrons
   NUPDOWN=      -1.0000    fix difference up-down

 DOS related values:
   EMIN   =  10.00;   EMAX   =-10.00  energy-range for DOS
   EFERMI =   0.00;   METHOD = LEGACY      
   ISMEAR =    -5;   SIGMA  =   0.20  broadening in eV -4-tet -1-fermi 0-gaus

 Electronic relaxation 2 (details)
   IALGO  =     38    algorithm
   LDIAG  =      T    sub-space diagonalisation (order eigenvalues)
   LSUBROT=      F    optimize rotation matrix (better conditioning)
   TURBO    =      0    0=normal 1=particle mesh
   IRESTART =      0    0=no restart 2=restart with 2 vectors
   NREBOOT  =      0    no. of reboots
   NMIN     =      0    reboot dimension
   EREF     =   0.00    reference energy to select bands
   IMIX   =      4    mixing-type and parameters
     AMIX     =   0.40;   BMIX     =  1.00
     AMIX_MAG =   1.60;   BMIX_MAG =  1.00
     AMIN     =   0.10
     WC   =   100.;   INIMIX=   1;  MIXPRE=   1;  MAXMIX= -45

 Intra band minimization:
   WEIMIN = 0.0000     energy-eigenvalue tresh-hold
   EBREAK =  0.20E-08  absolut break condition
   DEPER  =   0.30     relativ break condition  

   TIME   =   0.40     timestep for ELM

  volume/ion in A,a.u.               =      12.33        83.23
  Fermi-wavevector in a.u.,A,eV,Ry     =   1.666080  3.148434 37.767349  2.775822
  Thomas-Fermi vector in A             =   2.752338
 
 Write flags
   LWAVE        =      F    write WAVECAR
   LDOWNSAMPLE  =      F    k-point downsampling of WAVECAR
   LCHARG       =      T    write CHGCAR
   LVTOT        =      F    write LOCPOT, total local potential
   LVHAR        =      F    write LOCPOT, Hartree potential only
   WRT_POTENTIAL= false  ! write potential to hdf5 file
   LELF         =      F    write electronic localiz. function (ELF)
   LORBIT       =     11    0 simple, 1 ext, 2 COOP (PROOUT), +10 PAW based schemes


 Dipole corrections
   LMONO      =      F    monopole corrections only (constant potential shift)
   LDIPOL     =      F    correct potential (dipole corrections)
   IDIPOL     =      0    1-x, 2-y, 3-z, 4-all directions 
   EPSILON    =  1.0000000 bulk dielectric constant
   LVACPOTAV  =      F  vacuum potentials using an averaging scheme for the charge density
   VACPOTFLAT =  0.1000000 required flatness to determine vacuum potential
 Exchange correlation treatment:
   GGA     = PE    functional components
   XC_C    = 1    coefficients multiplying the functional components
   LIBXC   =     F    Libxc                    
   VOSKOWN =     0    Vosko Wilk Nusair interpolation
   LHFCALC =     F    Hartree Fock is set to
   LHFONE  =     F    Hartree Fock one center treatment
   AEXX    =    0.0000 exact exchange contribution

 Parameters of functionals:
   PE:
     No parameter
 
 Van der Waals corrections
   IVDW    =     0    specifies the selected vdW correction

 Linear response parameters
   LEPSILON=     F    determine dielectric tensor
   LRPA    =     F    only Hartree local field effects (RPA)
   LNABLA  =     F    use nabla operator in PAW spheres
   LVEL    =     F    velocity operator in full k-point grid
   CSHIFT  =0.1000    complex shift for real part using Kramers Kronig
   OMEGAMAX=  -1.0    maximum frequency
   DEG_THRESHOLD= 0.2000000E-02 threshold for treating states as degnerate
   RTIME   =   -0.100 relaxation time in fs
  (WPLASMAI=    0.000 imaginary part of plasma frequency in eV, 0.658/RTIME)
   DFIELD  = 0.0000000 0.0000000 0.0000000 field for delta impulse in time
 
  Optional k-point grid parameters
   LKPOINTS_OPT  =     F    use optional k-point grid
   KPOINTS_OPT_MODE=     1    mode for optional k-point grid
 
 Orbital magnetization related:
   ORBITALMAG=     F  switch on orbital magnetization
   LCHIMAG   =     F  perturbation theory with respect to B field
   DQ        =  0.001000  dq finite difference perturbation B field
   LLRAUG    =     F  two centre corrections for induced B field
   LBONE     =     F  B-component reconstruction in AE one-centre
   LVGVCALC  =     T  calculate vGv susceptibility
   LVGVAPPL  =     F  apply vGv susceptibility instead of pGv for G=0

 Random number generation:
   RANDOM_GENERATOR = DEFAULT
   PCG_SEED         = not used


--------------------------------------------------------------------------------------------------------


 Static calculation
 charge density and potential will be updated during run
 spin polarized calculation
 Variant of blocked Davidson
 Davidson routine will perform the subspace rotation
 perform sub-space diagonalisation
    after iterative eigenvector-optimisation
 modified Broyden-mixing scheme, WC =      100.0
 initial mixing is a Kerker type mixing with AMIX =  0.4000 and BMIX =      1.0000
 Hartree-type preconditioning will be used
 using additional bands           50
 reciprocal scheme for non local part
 use partial core corrections
 calculate Harris-corrections to forces 
   (improved forces if not selfconsistent)
 use gradient corrections 
 use of overlap-Matrix (Vanderbilt PP)
 Fermi weights with tetrahedron method with Bloechl corrections


--------------------------------------------------------------------------------------------------------


  energy-cutoff  :      520.00
  volume of cell :      148.00
      direct lattice vectors                 reciprocal lattice vectors
     3.654463374  0.000000000  0.000000000     0.273637987  0.000000000  0.000000000
     0.000000000  3.654463374  0.000000000     0.000000000  0.273637987  0.000000000
     0.000000000  0.000000000 11.081906669     0.000000000  0.000000000  0.090237179

  length of vectors
     3.654463374  3.654463374 11.081906669     0.273637987  0.273637987  0.090237179


 
 k-points in units of 2pi/SCALE and weight: pymatgen with grid density = 8800 / numb
   0.00000000  0.00000000  0.00000000       0.001
   0.02104908  0.00000000  0.00000000       0.006
   0.04209815  0.00000000  0.00000000       0.006
   0.06314723  0.00000000  0.00000000       0.006
   0.08419630  0.00000000  0.00000000       0.006
   0.10524538  0.00000000  0.00000000       0.006
   0.12629446  0.00000000  0.00000000       0.006
   0.02104908  0.02104908  0.00000000       0.006
   0.04209815  0.02104908  0.00000000       0.012
   0.06314723  0.02104908  0.00000000       0.012
   0.08419630  0.02104908  0.00000000       0.012
   0.10524538  0.02104908  0.00000000       0.012
   0.12629446  0.02104908  0.00000000       0.012
   0.04209815  0.04209815  0.00000000       0.006
   0.06314723  0.04209815  0.00000000       0.012
   0.08419630  0.04209815  0.00000000       0.012
   0.10524538  0.04209815  0.00000000       0.012
   0.12629446  0.04209815  0.00000000       0.012
   0.06314723  0.06314723  0.00000000       0.006
   0.08419630  0.06314723  0.00000000       0.012
   0.10524538  0.06314723  0.00000000       0.012
   0.12629446  0.06314723  0.00000000       0.012
   0.08419630  0.08419630  0.00000000       0.006
   0.10524538  0.08419630  0.00000000       0.012
   0.12629446  0.08419630  0.00000000       0.012
   0.10524538  0.10524538  0.00000000       0.006
   0.12629446  0.10524538  0.00000000       0.012
   0.12629446  0.12629446  0.00000000       0.006
   0.00000000  0.00000000  0.02255929       0.003
   0.02104908  0.00000000  0.02255929       0.012
   0.04209815  0.00000000  0.02255929       0.012
   0.06314723  0.00000000  0.02255929       0.012
   0.08419630  0.00000000  0.02255929       0.012
   0.10524538  0.00000000  0.02255929       0.012
   0.12629446  0.00000000  0.02255929       0.012
   0.02104908  0.02104908  0.02255929       0.012
   0.04209815  0.02104908  0.02255929       0.024
   0.06314723  0.02104908  0.02255929       0.024
   0.08419630  0.02104908  0.02255929       0.024
   0.10524538  0.02104908  0.02255929       0.024
   0.12629446  0.02104908  0.02255929       0.024
   0.04209815  0.04209815  0.02255929       0.012
   0.06314723  0.04209815  0.02255929       0.024
   0.08419630  0.04209815  0.02255929       0.024
   0.10524538  0.04209815  0.02255929       0.024
   0.12629446  0.04209815  0.02255929       0.024
   0.06314723  0.06314723  0.02255929       0.012
   0.08419630  0.06314723  0.02255929       0.024
   0.10524538  0.06314723  0.02255929       0.024
   0.12629446  0.06314723  0.02255929       0.024
   0.08419630  0.08419630  0.02255929       0.012
   0.10524538  0.08419630  0.02255929       0.024
   0.12629446  0.08419630  0.02255929       0.024
   0.10524538  0.10524538  0.02255929       0.012
   0.12629446  0.10524538  0.02255929       0.024
   0.12629446  0.12629446  0.02255929       0.012
   0.00000000  0.00000000  0.04511859       0.001
   0.02104908  0.00000000  0.04511859       0.006
   0.04209815  0.00000000  0.04511859       0.006
   0.06314723  0.00000000  0.04511859       0.006
   0.08419630  0.00000000  0.04511859       0.006
   0.10524538  0.00000000  0.04511859       0.006
   0.12629446  0.00000000  0.04511859       0.006
   0.02104908  0.02104908  0.04511859       0.006
   0.04209815  0.02104908  0.04511859       0.012
   0.06314723  0.02104908  0.04511859       0.012
   0.08419630  0.02104908  0.04511859       0.012
   0.10524538  0.02104908  0.04511859       0.012
   0.12629446  0.02104908  0.04511859       0.012
   0.04209815  0.04209815  0.04511859       0.006
   0.06314723  0.04209815  0.04511859       0.012
   0.08419630  0.04209815  0.04511859       0.012
   0.10524538  0.04209815  0.04511859       0.012
   0.12629446  0.04209815  0.04511859       0.012
   0.06314723  0.06314723  0.04511859       0.006
   0.08419630  0.06314723  0.04511859       0.012
   0.10524538  0.06314723  0.04511859       0.012
   0.12629446  0.06314723  0.04511859       0.012
   0.08419630  0.08419630  0.04511859       0.006
   0.10524538  0.08419630  0.04511859       0.012
   0.12629446  0.08419630  0.04511859       0.012
   0.10524538  0.10524538  0.04511859       0.006
   0.12629446  0.10524538  0.04511859       0.012
   0.12629446  0.12629446  0.04511859       0.006
 
 k-points in reciprocal lattice and weights: pymatgen with grid density = 8800 / numb
   0.00000000  0.00000000  0.00000000       0.001
   0.07692308  0.00000000  0.00000000       0.006
   0.15384615  0.00000000  0.00000000       0.006
   0.23076923  0.00000000  0.00000000       0.006
   0.30769231  0.00000000  0.00000000       0.006
   0.38461538  0.00000000  0.00000000       0.006
   0.46153846  0.00000000  0.00000000       0.006
   0.07692308  0.07692308  0.00000000       0.006
   0.15384615  0.07692308  0.00000000       0.012
   0.23076923  0.07692308  0.00000000       0.012
   0.30769231  0.07692308  0.00000000       0.012
   0.38461538  0.07692308  0.00000000       0.012
   0.46153846  0.07692308  0.00000000       0.012
   0.15384615  0.15384615  0.00000000       0.006
   0.23076923  0.15384615  0.00000000       0.012
   0.30769231  0.15384615  0.00000000       0.012
   0.38461538  0.15384615  0.00000000       0.012
   0.46153846  0.15384615  0.00000000       0.012
   0.23076923  0.23076923  0.00000000       0.006
   0.30769231  0.23076923  0.00000000       0.012
   0.38461538  0.23076923  0.00000000       0.012
   0.46153846  0.23076923  0.00000000       0.012
   0.30769231  0.30769231  0.00000000       0.006
   0.38461538  0.30769231  0.00000000       0.012
   0.46153846  0.30769231  0.00000000       0.012
   0.38461538  0.38461538  0.00000000       0.006
   0.46153846  0.38461538  0.00000000       0.012
   0.46153846  0.46153846  0.00000000       0.006
   0.00000000  0.00000000  0.25000000       0.003
   0.07692308  0.00000000  0.25000000       0.012
   0.15384615  0.00000000  0.25000000       0.012
   0.23076923  0.00000000  0.25000000       0.012
   0.30769231  0.00000000  0.25000000       0.012
   0.38461538  0.00000000  0.25000000       0.012
   0.46153846  0.00000000  0.25000000       0.012
   0.07692308  0.07692308  0.25000000       0.012
   0.15384615  0.07692308  0.25000000       0.024
   0.23076923  0.07692308  0.25000000       0.024
   0.30769231  0.07692308  0.25000000       0.024
   0.38461538  0.07692308  0.25000000       0.024
   0.46153846  0.07692308  0.25000000       0.024
   0.15384615  0.15384615  0.25000000       0.012
   0.23076923  0.15384615  0.25000000       0.024
   0.30769231  0.15384615  0.25000000       0.024
   0.38461538  0.15384615  0.25000000       0.024
   0.46153846  0.15384615  0.25000000       0.024
   0.23076923  0.23076923  0.25000000       0.012
   0.30769231  0.23076923  0.25000000       0.024
   0.38461538  0.23076923  0.25000000       0.024
   0.46153846  0.23076923  0.25000000       0.024
   0.30769231  0.30769231  0.25000000       0.012
   0.38461538  0.30769231  0.25000000       0.024
   0.46153846  0.30769231  0.25000000       0.024
   0.38461538  0.38461538  0.25000000       0.012
   0.46153846  0.38461538  0.25000000       0.024
   0.46153846  0.46153846  0.25000000       0.012
   0.00000000  0.00000000  0.50000000       0.001
   0.07692308  0.00000000  0.50000000       0.006
   0.15384615  0.00000000  0.50000000       0.006
   0.23076923  0.00000000  0.50000000       0.006
   0.30769231  0.00000000  0.50000000       0.006
   0.38461538  0.00000000  0.50000000       0.006
   0.46153846  0.00000000  0.50000000       0.006
   0.07692308  0.07692308  0.50000000       0.006
   0.15384615  0.07692308  0.50000000       0.012
   0.23076923  0.07692308  0.50000000       0.012
   0.30769231  0.07692308  0.50000000       0.012
   0.38461538  0.07692308  0.50000000       0.012
   0.46153846  0.07692308  0.50000000       0.012
   0.15384615  0.15384615  0.50000000       0.006
   0.23076923  0.15384615  0.50000000       0.012
   0.30769231  0.15384615  0.50000000       0.012
   0.38461538  0.15384615  0.50000000       0.012
   0.46153846  0.15384615  0.50000000       0.012
   0.23076923  0.23076923  0.50000000       0.006
   0.30769231  0.23076923  0.50000000       0.012
   0.38461538  0.23076923  0.50000000       0.012
   0.46153846  0.23076923  0.50000000       0.012
   0.30769231  0.30769231  0.50000000       0.006
   0.38461538  0.30769231  0.50000000       0.012
   0.46153846  0.30769231  0.50000000       0.012
   0.38461538  0.38461538  0.50000000       0.006
   0.46153846  0.38461538  0.50000000       0.012
   0.46153846  0.46153846  0.50000000       0.006
 
 position of ions in fractional coordinates (direct lattice) 
   0.00000000  0.50000000  0.16661875
   0.00000000  0.50000000  0.49919118
   0.00000000  0.50000000  0.83420977
   0.50000000  0.50000000  0.00420580
   0.50000000  0.50000000  0.33584357
   0.50000000  0.50000000  0.66455987
   0.50000000  0.00000000  0.16661875
   0.50000000  0.00000000  0.49919118
   0.50000000  0.00000000  0.83420977
   0.00000000  0.00000000  0.99871230
   0.00000000  0.00000000  0.32996946
   0.00000000  0.00000000  0.66666961
 
 position of ions in cartesian coordinates  (Angst):
   0.00000000  1.82723169  1.84645342
   0.00000000  1.82723169  5.53199002
   0.00000000  1.82723169  9.24463484
   1.82723169  1.82723169  0.04660829
   1.82723169  1.82723169  3.72178709
   1.82723169  1.82723169  7.36459041
   1.82723169  0.00000000  1.84645342
   1.82723169  0.00000000  5.53199002
   1.82723169  0.00000000  9.24463484
   0.00000000  0.00000000 11.06763650
   0.00000000  0.00000000  3.65669073
   0.00000000  0.00000000  7.38797043
 


--------------------------------------------------------------------------------------------------------


 k-point     1 :   0.0000 0.0000 0.0000  plane waves:    3993
 k-point     2 :   0.0769 0.0000 0.0000  plane waves:    3997
 k-point     3 :   0.1538 0.0000 0.0000  plane waves:    3989
 k-point     4 :   0.2308 0.0000 0.0000  plane waves:    3980
 k-point     5 :   0.3077 0.0000 0.0000  plane waves:    3980
 k-point     6 :   0.3846 0.0000 0.0000  plane waves:    3996
 k-point     7 :   0.4615 0.0000 0.0000  plane waves:    3970
 k-point     8 :   0.0769 0.0769 0.0000  plane waves:    3983
 k-point     9 :   0.1538 0.0769 0.0000  plane waves:    3998
 k-point    10 :   0.2308 0.0769 0.0000  plane waves:    3979
 k-point    11 :   0.3077 0.0769 0.0000  plane waves:    3975
 k-point    12 :   0.3846 0.0769 0.0000  plane waves:    3991
 k-point    13 :   0.4615 0.0769 0.0000  plane waves:    3973
 k-point    14 :   0.1538 0.1538 0.0000  plane waves:    3987
 k-point    15 :   0.2308 0.1538 0.0000  plane waves:    3969
 k-point    16 :   0.3077 0.1538 0.0000  plane waves:    3978
 k-point    17 :   0.3846 0.1538 0.0000  plane waves:    3989
 k-point    18 :   0.4615 0.1538 0.0000  plane waves:    3981
 k-point    19 :   0.2308 0.2308 0.0000  plane waves:    3976
 k-point    20 :   0.3077 0.2308 0.0000  plane waves:    3974
 k-point    21 :   0.3846 0.2308 0.0000  plane waves:    4000
 k-point    22 :   0.4615 0.2308 0.0000  plane waves:    3990
 k-point    23 :   0.3077 0.3077 0.0000  plane waves:    3984
 k-point    24 :   0.3846 0.3077 0.0000  plane waves:    3981
 k-point    25 :   0.4615 0.3077 0.0000  plane waves:    3997
 k-point    26 :   0.3846 0.3846 0.0000  plane waves:    3990
 k-point    27 :   0.4615 0.3846 0.0000  plane waves:    4000
 k-point    28 :   0.4615 0.4615 0.0000  plane waves:    4028
 k-point    29 :   0.0000 0.0000 0.2500  plane waves:    3989
 k-point    30 :   0.0769 0.0000 0.2500  plane waves:    3992
 k-point    31 :   0.1538 0.0000 0.2500  plane waves:    3983
 k-point    32 :   0.2308 0.0000 0.2500  plane waves:    3979
 k-point    33 :   0.3077 0.0000 0.2500  plane waves:    3983
 k-point    34 :   0.3846 0.0000 0.2500  plane waves:    3982
 k-point    35 :   0.4615 0.0000 0.2500  plane waves:    3977
 k-point    36 :   0.0769 0.0769 0.2500  plane waves:    3987
 k-point    37 :   0.1538 0.0769 0.2500  plane waves:    3978
 k-point    38 :   0.2308 0.0769 0.2500  plane waves:    3987
 k-point    39 :   0.3077 0.0769 0.2500  plane waves:    3982
 k-point    40 :   0.3846 0.0769 0.2500  plane waves:    3983
 k-point    41 :   0.4615 0.0769 0.2500  plane waves:    3977
 k-point    42 :   0.1538 0.1538 0.2500  plane waves:    3979
 k-point    43 :   0.2308 0.1538 0.2500  plane waves:    3980
 k-point    44 :   0.3077 0.1538 0.2500  plane waves:    3986
 k-point    45 :   0.3846 0.1538 0.2500  plane waves:    3978
 k-point    46 :   0.4615 0.1538 0.2500  plane waves:    3975
 k-point    47 :   0.2308 0.2308 0.2500  plane waves:    3974
 k-point    48 :   0.3077 0.2308 0.2500  plane waves:    3973
 k-point    49 :   0.3846 0.2308 0.2500  plane waves:    3982
 k-point    50 :   0.4615 0.2308 0.2500  plane waves:    3991
 k-point    51 :   0.3077 0.3077 0.2500  plane waves:    3986
 k-point    52 :   0.3846 0.3077 0.2500  plane waves:    3992
 k-point    53 :   0.4615 0.3077 0.2500  plane waves:    3996
 k-point    54 :   0.3846 0.3846 0.2500  plane waves:    3997
 k-point    55 :   0.4615 0.3846 0.2500  plane waves:    3997
 k-point    56 :   0.4615 0.4615 0.2500  plane waves:    4002
 k-point    57 :   0.0000 0.0000 0.5000  plane waves:    4002
 k-point    58 :   0.0769 0.0000 0.5000  plane waves:    3980
 k-point    59 :   0.1538 0.0000 0.5000  plane waves:    3980
 k-point    60 :   0.2308 0.0000 0.5000  plane waves:    3970
 k-point    61 :   0.3077 0.0000 0.5000  plane waves:    3994
 k-point    62 :   0.3846 0.0000 0.5000  plane waves:    3986
 k-point    63 :   0.4615 0.0000 0.5000  plane waves:    3990
 k-point    64 :   0.0769 0.0769 0.5000  plane waves:    3988
 k-point    65 :   0.1538 0.0769 0.5000  plane waves:    3966
 k-point    66 :   0.2308 0.0769 0.5000  plane waves:    3978
 k-point    67 :   0.3077 0.0769 0.5000  plane waves:    3990
 k-point    68 :   0.3846 0.0769 0.5000  plane waves:    3984
 k-point    69 :   0.4615 0.0769 0.5000  plane waves:    3978
 k-point    70 :   0.1538 0.1538 0.5000  plane waves:    3978
 k-point    71 :   0.2308 0.1538 0.5000  plane waves:    3978
 k-point    72 :   0.3077 0.1538 0.5000  plane waves:    3984
 k-point    73 :   0.3846 0.1538 0.5000  plane waves:    3994
 k-point    74 :   0.4615 0.1538 0.5000  plane waves:    3962
 k-point    75 :   0.2308 0.2308 0.5000  plane waves:    3982
 k-point    76 :   0.3077 0.2308 0.5000  plane waves:    3982
 k-point    77 :   0.3846 0.2308 0.5000  plane waves:    3978
 k-point    78 :   0.4615 0.2308 0.5000  plane waves:    3986
 k-point    79 :   0.3077 0.3077 0.5000  plane waves:    3980
 k-point    80 :   0.3846 0.3077 0.5000  plane waves:    3990
 k-point    81 :   0.4615 0.3077 0.5000  plane waves:    3986
 k-point    82 :   0.3846 0.3846 0.5000  plane waves:    3996
 k-point    83 :   0.4615 0.3846 0.5000  plane waves:    4002
 k-point    84 :   0.4615 0.4615 0.5000  plane waves:    4010

 maximum and minimum number of plane-waves per node :      4028     3962

 maximum number of plane-waves:      4028
 maximum index in each direction: 
   IXMAX=    6   IYMAX=    6   IZMAX=   20
   IXMIN=   -7   IYMIN=   -7   IZMIN=  -21


 serial   3D FFT for wavefunctions
 parallel 3D FFT for charge:
    minimum data exchange during FFTs selected (reduces bandwidth)


 total amount of memory used by VASP MPI-rank0   182150. kBytes
=======================================================================

   base      :      30000. kBytes
   nonl-proj :      98316. kBytes
   fftplans  :        888. kBytes
   grid      :       6813. kBytes
   one-center:        373. kBytes
   wavefun   :      45760. kBytes
 
     INWAV:  cpu time      0.0001: real time      0.0001
 Broyden mixing: mesh for mixing (old mesh)
   NGX = 13   NGY = 13   NGZ = 41
  (NGX  = 56   NGY  = 56   NGZ  =168)
  gives a total of   6929 points

 initial charge density was supplied:
 charge density of overlapping atoms calculated
 number of electron     156.0000000 magnetization       8.1720000
 keeping initial charge density in first step


--------------------------------------------------------------------------------------------------------


 Maximum index for augmentation-charges         1063 (set IRDMAX)


--------------------------------------------------------------------------------------------------------


 First call to EWALD:  gamma=   0.335
 Maximum number of real-space cells 4x 4x 2
 Maximum number of reciprocal cells 2x 2x 5

    FEWALD:  cpu time      0.0034: real time      0.0034


--------------------------------------- Ionic step        1  -------------------------------------------




--------------------------------------- Iteration      1(   1)  ---------------------------------------


    POTLOK:  cpu time      0.0258: real time      0.0669
    SETDIJ:  cpu time      0.0071: real time      0.0071
     EDDAV:  cpu time      5.8652: real time      5.9106
 BZINTS: Fermi energy:   23.998072;  156.000000 electrons
         Band energy: 0.617692E+03;  BLOECHL correction:   -0.066941
       DOS:  cpu time      0.1249: real time      0.1264
    --------------------------------------------
      LOOP:  cpu time      6.0233: real time      6.1114

 eigenvalue-minimisations  : 43136
 total energy-change (2. order) : 0.1762817E+04  (-0.8432046E+04)
 number of electron     156.0000000 magnetization       8.1720000
 augmentation part      156.0000000 magnetization       8.1720000

 Free energy of the ion-electron system (eV)
  ---------------------------------------------------
  alpha Z        PSCENC =      1149.93330786
  Ewald energy   TEWEN  =    -18409.85296048
  -Hartree energ DENC   =     -5833.43734434
  -exchange      EXHF   =         0.00000000
  -V(xc)+E(xc)   XCENC  =       658.40855914
  PAW double counting   =     20095.06330340   -20819.09259792
  entropy T*S    EENTRO =         0.00000000
  eigenvalues    EBANDS =       617.69153426
  atomic energy  EATOM  =     24304.10294433
  Solvation  Ediel_sol  =         0.00000000
  ---------------------------------------------------
  free energy    TOTEN  =      1762.81674624 eV

  energy without entropy =     1762.81674624  energy(sigma->0) =     1762.81674624


--------------------------------------------------------------------------------------------------------




--------------------------------------- Iteration      1(   2)  ---------------------------------------


     EDDAV:  cpu time      5.8063: real time      5.8591
 BZINTS: Fermi energy:   13.024663;  156.000000 electrons
         Band energy:-0.113967E+04;  BLOECHL correction:   -0.020984
       DOS:  cpu time      0.1272: real time      0.1282
    --------------------------------------------
      LOOP:  cpu time      5.9332: real time      5.9869

 eigenvalue-minimisations  : 43008
 total energy-change (2. order) :-0.1757362E+04  (-0.1667913E+04)
 number of electron     156.0000000 magnetization       8.1720000
 augmentation part      156.0000000 magnetization       8.1720000

 Free energy of the ion-electron system (eV)
  ---------------------------------------------------
  alpha Z        PSCENC =      1149.93330786
  Ewald energy   TEWEN  =    -18409.85296048
  -Hartree energ DENC   =     -5833.43734434
  -exchange      EXHF   =         0.00000000
  -V(xc)+E(xc)   XCENC  =       658.40855914
  PAW double counting   =     20095.06330340   -20819.09259792
  entropy T*S    EENTRO =         0.00000000
  eigenvalues    EBANDS =     -1139.67095469
  atomic energy  EATOM  =     24304.10294433
  Solvation  Ediel_sol  =         0.00000000
  ---------------------------------------------------
  free energy    TOTEN  =         5.45425730 eV

  energy without entropy =        5.45425730  energy(sigma->0) =        5.45425730


--------------------------------------------------------------------------------------------------------




--------------------------------------- Iteration      1(   3)  ---------------------------------------


     EDDAV:  cpu time      6.8834: real time      6.9302
 BZINTS: Fermi energy:   12.433794;  156.000000 electrons
         Band energy:-0.124867E+04;  BLOECHL correction:   -0.023346
       DOS:  cpu time      0.1270: real time      0.1279
    --------------------------------------------
      LOOP:  cpu time      7.0104: real time      7.0581

 eigenvalue-minimisations  : 50624
 total energy-change (2. order) :-0.1090022E+03  (-0.1076693E+03)
 number of electron     156.0000000 magnetization       8.1720000
 augmentation part      156.0000000 magnetization       8.1720000

 Free energy of the ion-electron system (eV)
  ---------------------------------------------------
  alpha Z        PSCENC =      1149.93330786
  Ewald energy   TEWEN  =    -18409.85296048
  -Hartree energ DENC   =     -5833.43734434
  -exchange      EXHF   =         0.00000000
  -V(xc)+E(xc)   XCENC  =       658.40855914
  PAW double counting   =     20095.06330340   -20819.09259792
  entropy T*S    EENTRO =         0.00000000
  eigenvalues    EBANDS =     -1248.67320327
  atomic energy  EATOM  =     24304.10294433
  Solvation  Ediel_sol  =         0.00000000
  ---------------------------------------------------
  free energy    TOTEN  =      -103.54799129 eV

  energy without entropy =     -103.54799129  energy(sigma->0) =     -103.54799129


--------------------------------------------------------------------------------------------------------




--------------------------------------- Iteration      1(   4)  ---------------------------------------


     EDDAV:  cpu time      6.1878: real time      6.2443
 BZINTS: Fermi energy:   12.428713;  156.000000 electrons
         Band energy:-0.125021E+04;  BLOECHL correction:   -0.023349
       DOS:  cpu time      0.1277: real time      0.1287
    --------------------------------------------
      LOOP:  cpu time      6.3155: real time      6.3730

 eigenvalue-minimisations  : 45600
 total energy-change (2. order) :-0.1536474E+01  (-0.1536156E+01)
 number of electron     156.0000000 magnetization       8.1720000
 augmentation part      156.0000000 magnetization       8.1720000

 Free energy of the ion-electron system (eV)
  ---------------------------------------------------
  alpha Z        PSCENC =      1149.93330786
  Ewald energy   TEWEN  =    -18409.85296048
  -Hartree energ DENC   =     -5833.43734434
  -exchange      EXHF   =         0.00000000
  -V(xc)+E(xc)   XCENC  =       658.40855914
  PAW double counting   =     20095.06330340   -20819.09259792
  entropy T*S    EENTRO =         0.00000000
  eigenvalues    EBANDS =     -1250.20967683
  atomic energy  EATOM  =     24304.10294433
  Solvation  Ediel_sol  =         0.00000000
  ---------------------------------------------------
  free energy    TOTEN  =      -105.08446484 eV

  energy without entropy =     -105.08446484  energy(sigma->0) =     -105.08446484


--------------------------------------------------------------------------------------------------------




--------------------------------------- Iteration      1(   5)  ---------------------------------------


     EDDAV:  cpu time      7.3854: real time      7.4477
 BZINTS: Fermi energy:   12.428664;  156.000000 electrons
         Band energy:-0.125024E+04;  BLOECHL correction:   -0.023350
       DOS:  cpu time      0.1259: real time      0.1271
    CHARGE:  cpu time      0.1553: real time      0.1568
    MIXING:  cpu time      0.0064: real time      0.0064
    --------------------------------------------
      LOOP:  cpu time      7.6730: real time      7.7380

 eigenvalue-minimisations  : 53216
 total energy-change (2. order) :-0.2835498E-01  (-0.2835379E-01)
 number of electron     155.9999954 magnetization       7.6379876
 augmentation part       79.2445069 magnetization       5.7357868

 Broyden mixing:
  rms(total) = 0.40686E+01    rms(broyden)= 0.40680E+01
  rms(prec ) = 0.45591E+01
  weight for this iteration     100.00

 Free energy of the ion-electron system (eV)
  ---------------------------------------------------
  alpha Z        PSCENC =      1149.93330786
  Ewald energy   TEWEN  =    -18409.85296048
  -Hartree energ DENC   =     -5833.43734434
  -exchange      EXHF   =         0.00000000
  -V(xc)+E(xc)   XCENC  =       658.40855914
  PAW double counting   =     20095.06330340   -20819.09259792
  entropy T*S    EENTRO =         0.00000000
  eigenvalues    EBANDS =     -1250.23803181
  atomic energy  EATOM  =     24304.10294433
  Solvation  Ediel_sol  =         0.00000000
  ---------------------------------------------------
  free energy    TOTEN  =      -105.11281982 eV

  energy without entropy =     -105.11281982  energy(sigma->0) =     -105.11281982


--------------------------------------------------------------------------------------------------------




--------------------------------------- Iteration      1(   6)  ---------------------------------------


    POTLOK:  cpu time      0.0309: real time      0.0440
    SETDIJ:  cpu time      0.0083: real time      0.0083
     EDDAV:  cpu time      6.9123: real time      6.9585
 BZINTS: Fermi energy:    9.763775;  156.000000 electrons
         Band energy:-0.166612E+04;  BLOECHL correction:   -0.022786
       DOS:  cpu time      0.1331: real time      0.1342
    CHARGE:  cpu time      0.1486: real time      0.1494
    MIXING:  cpu time      0.0035: real time      0.0037
    --------------------------------------------
      LOOP:  cpu time      7.2367: real time      7.2980

 eigenvalue-minimisations  : 51328
 total energy-change (2. order) :-0.4535139E+01  (-0.1485763E+02)
 number of electron     155.9999944 magnetization       7.4135521
 augmentation part       88.0757693 magnetization       5.8330424

 Broyden mixing:
  rms(total) = 0.60401E+01    rms(broyden)= 0.60398E+01
  rms(prec ) = 0.92076E+01
  weight for this iteration     100.00

 eigenvalues of (default mixing * dielectric matrix)
  average eigenvalue GAMMA=   0.2844
  0.2844

 Free energy of the ion-electron system (eV)
  ---------------------------------------------------
  alpha Z        PSCENC =      1149.93330786
  Ewald energy   TEWEN  =    -18409.85296048
  -Hartree energ DENC   =     -5426.72756031
  -exchange      EXHF   =         0.00000000
  -V(xc)+E(xc)   XCENC  =       640.72152513
  PAW double counting   =     20608.40289602   -21310.11145417
  entropy T*S    EENTRO =         0.00000000
  eigenvalues    EBANDS =     -1666.11665673
  atomic energy  EATOM  =     24304.10294433
  Solvation  Ediel_sol  =         0.00000000
  ---------------------------------------------------
  free energy    TOTEN  =      -109.64795835 eV

  energy without entropy =     -109.64795835  energy(sigma->0) =     -109.64795835


--------------------------------------------------------------------------------------------------------




--------------------------------------- Iteration      1(   7)  ---------------------------------------


    POTLOK:  cpu time      0.0328: real time      0.0445
    SETDIJ:  cpu time      0.0079: real time      0.0080
     EDDAV:  cpu time      7.5302: real time      7.5783
 BZINTS: Fermi energy:   10.616659;  156.000000 electrons
         Band energy:-0.158432E+04;  BLOECHL correction:   -0.019299
       DOS:  cpu time      0.1333: real time      0.1342
    CHARGE:  cpu time      0.1496: real time      0.1504
    MIXING:  cpu time      0.0029: real time      0.0032
    --------------------------------------------
      LOOP:  cpu time      7.8568: real time      7.9187

 eigenvalue-minimisations  : 53312
 total energy-change (2. order) :-0.6532522E+01  (-0.4560700E+02)
 number of electron     155.9999950 magnetization       6.7182060
 augmentation part       85.4529303 magnetization       6.0584771

 Broyden mixing:
  rms(total) = 0.65770E+01    rms(broyden)= 0.65766E+01
  rms(prec ) = 0.10587E+02
  weight for this iteration     100.00

 eigenvalues of (default mixing * dielectric matrix)
  average eigenvalue GAMMA=   0.3240
  0.5331  0.1148

 Free energy of the ion-electron system (eV)
  ---------------------------------------------------
  alpha Z        PSCENC =      1149.93330786
  Ewald energy   TEWEN  =    -18409.85296048
  -Hartree energ DENC   =     -5501.15228974
  -exchange      EXHF   =         0.00000000
  -V(xc)+E(xc)   XCENC  =       642.82706199
  PAW double counting   =     20933.48205903   -21651.20102472
  entropy T*S    EENTRO =         0.00000000
  eigenvalues    EBANDS =     -1584.31957909
  atomic energy  EATOM  =     24304.10294433
  Solvation  Ediel_sol  =         0.00000000
  ---------------------------------------------------
  free energy    TOTEN  =      -116.18048083 eV

  energy without entropy =     -116.18048083  energy(sigma->0) =     -116.18048083


--------------------------------------------------------------------------------------------------------




--------------------------------------- Iteration      1(   8)  ---------------------------------------


    POTLOK:  cpu time      0.0432: real time      0.0440
    SETDIJ:  cpu time      0.0077: real time      0.0078
     EDDAV:  cpu time      7.2263: real time      7.2743
 BZINTS: Fermi energy:   11.005341;  156.000000 electrons
         Band energy:-0.147495E+04;  BLOECHL correction:   -0.023234
       DOS:  cpu time      0.1328: real time      0.1340
    CHARGE:  cpu time      0.1492: real time      0.1500
    MIXING:  cpu time      0.0019: real time      0.0019
    --------------------------------------------
      LOOP:  cpu time      7.5611: real time      7.6119

 eigenvalue-minimisations  : 51776
 total energy-change (2. order) : 0.1714018E+02  (-0.1230802E+02)
 number of electron     155.9999956 magnetization       6.4785364
 augmentation part       83.5561139 magnetization       4.2221255

 Broyden mixing:
  rms(total) = 0.37966E+01    rms(broyden)= 0.37961E+01
  rms(prec ) = 0.53327E+01
  weight for this iteration     100.00

 eigenvalues of (default mixing * dielectric matrix)
  average eigenvalue GAMMA=   0.4022
  0.7867  0.3086  0.1114

 Free energy of the ion-electron system (eV)
  ---------------------------------------------------
  alpha Z        PSCENC =      1149.93330786
  Ewald energy   TEWEN  =    -18409.85296048
  -Hartree energ DENC   =     -5573.70557119
  -exchange      EXHF   =         0.00000000
  -V(xc)+E(xc)   XCENC  =       644.82036316
  PAW double counting   =     21443.27351354   -22182.65986944
  entropy T*S    EENTRO =         0.00000000
  eigenvalues    EBANDS =     -1474.95203178
  atomic energy  EATOM  =     24304.10294433
  Solvation  Ediel_sol  =         0.00000000
  ---------------------------------------------------
  free energy    TOTEN  =       -99.04030399 eV

  energy without entropy =      -99.04030399  energy(sigma->0) =      -99.04030399


--------------------------------------------------------------------------------------------------------




--------------------------------------- Iteration      1(   9)  ---------------------------------------


    POTLOK:  cpu time      0.0326: real time      0.0449
    SETDIJ:  cpu time      0.0081: real time      0.0082
     EDDAV:  cpu time      6.9161: real time      6.9605
 BZINTS: Fermi energy:   11.035698;  156.000000 electrons
         Band energy:-0.148930E+04;  BLOECHL correction:   -0.016624
       DOS:  cpu time      0.1324: real time      0.1335
    CHARGE:  cpu time      0.1500: real time      0.1507
    MIXING:  cpu time      0.0019: real time      0.0019
    --------------------------------------------
      LOOP:  cpu time      7.2410: real time      7.2997

 eigenvalue-minimisations  : 50688
 total energy-change (2. order) :-0.5055645E+01  (-0.2148104E+02)
 number of electron     155.9999949 magnetization       5.8257104
 augmentation part       83.7799850 magnetization       5.1285904

 Broyden mixing:
  rms(total) = 0.48350E+01    rms(broyden)= 0.48346E+01
  rms(prec ) = 0.67897E+01
  weight for this iteration     100.00

 eigenvalues of (default mixing * dielectric matrix)
  average eigenvalue GAMMA=   0.4584
  1.2060  0.4148  0.1142  0.0986

 Free energy of the ion-electron system (eV)
  ---------------------------------------------------
  alpha Z        PSCENC =      1149.93330786
  Ewald energy   TEWEN  =    -18409.85296048
  -Hartree energ DENC   =     -5559.04696966
  -exchange      EXHF   =         0.00000000
  -V(xc)+E(xc)   XCENC  =       644.10996002
  PAW double counting   =     21633.27077423   -22377.30895493
  entropy T*S    EENTRO =         0.00000000
  eigenvalues    EBANDS =     -1489.30405037
  atomic energy  EATOM  =     24304.10294433
  Solvation  Ediel_sol  =         0.00000000
  ---------------------------------------------------
  free energy    TOTEN  =      -104.09594900 eV

  energy without entropy =     -104.09594900  energy(sigma->0) =     -104.09594900


--------------------------------------------------------------------------------------------------------




--------------------------------------- Iteration      1(  10)  ---------------------------------------


    POTLOK:  cpu time      0.0331: real time      0.0444
    SETDIJ:  cpu time      0.0082: real time      0.0083
     EDDAV:  cpu time      6.8820: real time      6.9280
 BZINTS: Fermi energy:   10.492880;  156.000000 electrons
         Band energy:-0.152553E+04;  BLOECHL correction:   -0.017980
       DOS:  cpu time      0.1328: real time      0.1337
    CHARGE:  cpu time      0.1484: real time      0.1492
    MIXING:  cpu time      0.0018: real time      0.0019
    --------------------------------------------
      LOOP:  cpu time      7.2064: real time      7.2656

 eigenvalue-minimisations  : 51232
 total energy-change (2. order) : 0.7224271E+01  (-0.9907227E+01)
 number of electron     155.9999945 magnetization       5.6900959
 augmentation part       84.7723506 magnetization       4.6009653

 Broyden mixing:
  rms(total) = 0.33694E+01    rms(broyden)= 0.33690E+01
  rms(prec ) = 0.50099E+01
  weight for this iteration     100.00

 eigenvalues of (default mixing * dielectric matrix)
  average eigenvalue GAMMA=   0.3982
  1.2002  0.4197  0.1373  0.1373  0.0965

 Free energy of the ion-electron system (eV)
  ---------------------------------------------------
  alpha Z        PSCENC =      1149.93330786
  Ewald energy   TEWEN  =    -18409.85296048
  -Hartree energ DENC   =     -5509.26921380
  -exchange      EXHF   =         0.00000000
  -V(xc)+E(xc)   XCENC  =       642.09389797
  PAW double counting   =     21907.78541067   -22656.13543505
  entropy T*S    EENTRO =         0.00000000
  eigenvalues    EBANDS =     -1525.52962946
  atomic energy  EATOM  =     24304.10294433
  Solvation  Ediel_sol  =         0.00000000
  ---------------------------------------------------
  free energy    TOTEN  =       -96.87167796 eV

  energy without entropy =      -96.87167796  energy(sigma->0) =      -96.87167796


--------------------------------------------------------------------------------------------------------




--------------------------------------- Iteration      1(  11)  ---------------------------------------


    POTLOK:  cpu time      0.0327: real time      0.0450
    SETDIJ:  cpu time      0.0076: real time      0.0077
     EDDAV:  cpu time      7.4154: real time      7.4634
 BZINTS: Fermi energy:   10.430532;  156.000000 electrons
         Band energy:-0.152507E+04;  BLOECHL correction:   -0.024407
       DOS:  cpu time      0.1323: real time      0.1334
    CHARGE:  cpu time      0.1493: real time      0.1500
    MIXING:  cpu time      0.0021: real time      0.0022
    --------------------------------------------
      LOOP:  cpu time      7.7395: real time      7.8017

 eigenvalue-minimisations  : 52384
 total energy-change (2. order) : 0.4777625E+01  (-0.3006009E+01)
 number of electron     155.9999950 magnetization       5.6502628
 augmentation part       84.6410548 magnetization       4.2080525

 Broyden mixing:
  rms(total) = 0.12430E+01    rms(broyden)= 0.12427E+01
  rms(prec ) = 0.17939E+01
  weight for this iteration     100.00

 eigenvalues of (default mixing * dielectric matrix)
  average eigenvalue GAMMA=   0.3993
  1.1648  0.4517  0.4517  0.1362  0.0957  0.0957

 Free energy of the ion-electron system (eV)
  ---------------------------------------------------
  alpha Z        PSCENC =      1149.93330786
  Ewald energy   TEWEN  =    -18409.85296048
  -Hartree energ DENC   =     -5504.07850278
  -exchange      EXHF   =         0.00000000
  -V(xc)+E(xc)   XCENC  =       641.95867599
  PAW double counting   =     21944.24756751   -22693.33430957
  entropy T*S    EENTRO =         0.00000000
  eigenvalues    EBANDS =     -1525.07077604
  atomic energy  EATOM  =     24304.10294433
  Solvation  Ediel_sol  =         0.00000000
  ---------------------------------------------------
  free energy    TOTEN  =       -92.09405317 eV

  energy without entropy =      -92.09405317  energy(sigma->0) =      -92.09405317


--------------------------------------------------------------------------------------------------------




--------------------------------------- Iteration      1(  12)  ---------------------------------------


    POTLOK:  cpu time      0.0439: real time      0.0449
    SETDIJ:  cpu time      0.0078: real time      0.0079
     EDDAV:  cpu time      7.4167: real time      7.4681
 BZINTS: Fermi energy:   10.478023;  156.000000 electrons
         Band energy:-0.152626E+04;  BLOECHL correction:   -0.026102
       DOS:  cpu time      0.1326: real time      0.1335
    CHARGE:  cpu time      0.1486: real time      0.1494
    MIXING:  cpu time      0.0020: real time      0.0020
    --------------------------------------------
      LOOP:  cpu time      7.7517: real time      7.8058

 eigenvalue-minimisations  : 52832
 total energy-change (2. order) :-0.2647181E+01  (-0.3141454E+01)
 number of electron     155.9999952 magnetization       5.6981540
 augmentation part       84.6197482 magnetization       3.8679833

 Broyden mixing:
  rms(total) = 0.27825E+01    rms(broyden)= 0.27821E+01
  rms(prec ) = 0.43912E+01
  weight for this iteration     100.00

 eigenvalues of (default mixing * dielectric matrix)
  average eigenvalue GAMMA=   0.3705
  1.1773  0.4907  0.4907  0.1464  0.0994  0.0994  0.0895

 Free energy of the ion-electron system (eV)
  ---------------------------------------------------
  alpha Z        PSCENC =      1149.93330786
  Ewald energy   TEWEN  =    -18409.85296048
  -Hartree energ DENC   =     -5504.24215459
  -exchange      EXHF   =         0.00000000
  -V(xc)+E(xc)   XCENC  =       642.23417087
  PAW double counting   =     21979.44281862   -22730.09686170
  entropy T*S    EENTRO =         0.00000000
  eigenvalues    EBANDS =     -1526.26249924
  atomic energy  EATOM  =     24304.10294433
  Solvation  Ediel_sol  =         0.00000000
  ---------------------------------------------------
  free energy    TOTEN  =       -94.74123434 eV

  energy without entropy =      -94.74123434  energy(sigma->0) =      -94.74123434


--------------------------------------------------------------------------------------------------------




--------------------------------------- Iteration      1(  13)  ---------------------------------------


    POTLOK:  cpu time      0.0311: real time      0.0449
    SETDIJ:  cpu time      0.0084: real time      0.0084
     EDDAV:  cpu time      7.2485: real time      7.2944
 BZINTS: Fermi energy:   10.455640;  156.000000 electrons
         Band energy:-0.152224E+04;  BLOECHL correction:   -0.025295
       DOS:  cpu time      0.1373: real time      0.1383
    CHARGE:  cpu time      0.1478: real time      0.1486
    MIXING:  cpu time      0.0020: real time      0.0020
    --------------------------------------------
      LOOP:  cpu time      7.5751: real time      7.6367

 eigenvalue-minimisations  : 52352
 total energy-change (2. order) : 0.2289866E+01  (-0.2577748E+01)
 number of electron     155.9999951 magnetization       5.8031292
 augmentation part       84.5659540 magnetization       4.1110335

 Broyden mixing:
  rms(total) = 0.84186E+00    rms(broyden)= 0.84109E+00
  rms(prec ) = 0.99525E+00
  weight for this iteration     100.00

 eigenvalues of (default mixing * dielectric matrix)
  average eigenvalue GAMMA=   0.3819
  1.1781  0.5769  0.5769  0.3215  0.1332  0.1081  0.0860  0.0749

 Free energy of the ion-electron system (eV)
  ---------------------------------------------------
  alpha Z        PSCENC =      1149.93330786
  Ewald energy   TEWEN  =    -18409.85296048
  -Hartree energ DENC   =     -5504.96438270
  -exchange      EXHF   =         0.00000000
  -V(xc)+E(xc)   XCENC  =       642.38174056
  PAW double counting   =     22006.93945248   -22758.75169305
  entropy T*S    EENTRO =         0.00000000
  eigenvalues    EBANDS =     -1522.23977760
  atomic energy  EATOM  =     24304.10294433
  Solvation  Ediel_sol  =         0.00000000
  ---------------------------------------------------
  free energy    TOTEN  =       -92.45136860 eV

  energy without entropy =      -92.45136860  energy(sigma->0) =      -92.45136860


--------------------------------------------------------------------------------------------------------




--------------------------------------- Iteration      1(  14)  ---------------------------------------


    POTLOK:  cpu time      0.0316: real time      0.0441
    SETDIJ:  cpu time      0.0075: real time      0.0075
     EDDAV:  cpu time      7.5588: real time      7.6937
[...]
    113      25.4701      0.00000
    114      25.8755      0.00000
    115      25.9209      0.00000
    116      26.2145      0.00000
    117      26.3684      0.00000
    118      27.1670      0.00000
    119      27.3094      0.00000
    120      28.2856      0.00000
    121      28.3249      0.00000
    122      28.3562      0.00000
    123      28.8563      0.00000
    124      29.7337      0.00000
    125      30.0153      0.00000
    126      30.2028      0.00000
    127      30.4274      0.00000
    128      31.0792      0.00000


--------------------------------------------------------------------------------------------------------


 soft charge-density along one line, spin component           1
         0         1         2         3         4         5         6         7         8         9
 total charge-density along one line
 
 soft charge-density along one line, spin component           2
         0         1         2         3         4         5         6         7         8         9
 total charge-density along one line
 
 pseudopotential strength for first ion, spin component:           1
-42.495   0.000  -0.000   6.576  -0.000   0.000   0.000   0.000
  0.000 -42.533   0.000  -0.000   6.591  -0.000   0.000   0.000
 -0.000   0.000 -42.469   0.000  -0.000   6.564   0.000   0.000
  6.576  -0.000   0.000   5.911  -0.000   0.000  -0.000  -0.000
 -0.000   6.591  -0.000  -0.000   5.906  -0.000  -0.000  -0.000
  0.000  -0.000   6.564   0.000  -0.000   5.912  -0.000  -0.000
  0.000   0.000   0.000  -0.000  -0.000  -0.000  -0.105   0.000
  0.000   0.000   0.000  -0.000  -0.000  -0.000   0.000  -0.101
 -0.000   0.000   0.000   0.000   0.001  -0.000   0.000  -0.000
  0.000  -0.000  -0.008  -0.000   0.000   0.005   0.000  -0.000
 -0.000  -0.004  -0.000   0.000   0.003   0.000  -0.000  -0.000
 -0.000   0.000   0.000   0.000  -0.000  -0.000  -0.650   0.000
  0.000   0.000   0.000  -0.000  -0.000  -0.000   0.000  -0.646
 -0.000   0.000   0.000   0.000   0.001  -0.000   0.000  -0.000
  0.000  -0.000  -0.008  -0.000   0.000   0.005   0.000  -0.000
 -0.000  -0.004  -0.000   0.000   0.003   0.000  -0.000  -0.000
 -0.000   0.002   0.000  -0.000   0.001   0.000   0.000  -0.000
 -0.000   0.007   0.000  -0.000   0.003   0.000   0.000  -0.000
 pseudopotential strength for first ion, spin component:           2
-44.456   0.000  -0.000   7.402  -0.000   0.000   0.000   0.004
  0.000 -44.532   0.000  -0.000   7.432  -0.000   0.000   0.000
 -0.000   0.000 -44.370   0.000  -0.000   7.366   0.000   0.000
  7.402  -0.000   0.000   5.680  -0.000   0.000  -0.000  -0.003
 -0.000   7.432  -0.000  -0.000   5.673  -0.000  -0.000  -0.000
  0.000  -0.000   7.366   0.000  -0.000   5.686  -0.000  -0.000
  0.000   0.000   0.000  -0.000  -0.000  -0.000  -1.602   0.000
  0.004   0.000   0.000  -0.003  -0.000  -0.000   0.000  -1.768
 -0.000   0.013   0.000   0.000  -0.006  -0.000   0.000   0.000
  0.000  -0.000   0.022  -0.000  -0.000  -0.010   0.000  -0.000
 -0.000   0.009   0.000   0.000  -0.004  -0.000  -0.000  -0.000
  0.000   0.000   0.000  -0.000  -0.000  -0.000  -2.123   0.000
  0.004   0.000   0.000  -0.003  -0.000  -0.000   0.000  -2.287
 -0.000   0.013  -0.000   0.000  -0.006  -0.000   0.000   0.000
  0.000  -0.000   0.022  -0.000   0.000  -0.010   0.000  -0.000
 -0.000   0.009   0.000   0.000  -0.004  -0.000  -0.000  -0.000
 -0.000  -0.005   0.000  -0.000   0.003   0.000   0.000  -0.000
 -0.000  -0.012   0.000  -0.000   0.008   0.000   0.000  -0.000
 total augmentation occupancy for first ion, spin component:           1
  1.992  -0.000   0.000  -0.026   0.000   0.000   0.000  -0.006   0.000   0.000  -0.000   0.000   0.006   0.000   0.000   0.000
 -0.000   1.992   0.000  -0.000  -0.027  -0.000   0.000  -0.000  -0.004   0.000   0.002   0.000   0.000   0.004   0.000  -0.002
  0.000   0.000   1.992   0.000   0.000  -0.026   0.000   0.000   0.000  -0.001   0.000  -0.000  -0.000   0.000   0.002   0.000
 -0.026  -0.000   0.000   0.199   0.000   0.000   0.000  -0.016   0.000  -0.000   0.000   0.000   0.022   0.000  -0.000   0.000
  0.000  -0.027   0.000   0.000   0.199  -0.000   0.000   0.000  -0.009   0.000   0.015   0.000  -0.000   0.003   0.000  -0.024
  0.000  -0.000  -0.026   0.000  -0.000   0.178  -0.000   0.000   0.000   0.009  -0.000   0.000  -0.000   0.000  -0.028   0.000
  0.000   0.000   0.000   0.000   0.000  -0.000   2.629   0.000   0.000   0.000   0.000  -1.483   0.000  -0.000   0.000   0.000
 -0.006  -0.000   0.000  -0.016   0.000   0.000   0.000   2.903   0.000  -0.000  -0.000  -0.000  -2.087  -0.000   0.000   0.000
  0.000  -0.004   0.000   0.000  -0.009   0.000   0.000   0.000   3.249   0.000   0.230   0.000  -0.000  -1.921   0.000  -0.119
  0.000   0.000  -0.001  -0.000   0.000   0.009   0.000  -0.000   0.000   2.539   0.000   0.000   0.000   0.000  -1.429   0.000
 -0.000   0.002   0.000   0.000   0.015  -0.000   0.000  -0.000   0.230   0.000   2.985   0.000   0.000  -0.121   0.000  -1.772
  0.000   0.000  -0.000   0.000   0.000   0.000  -1.483  -0.000   0.000   0.000   0.000   1.761   0.000   0.000   0.000   0.000
  0.006   0.000  -0.000   0.022  -0.000  -0.000   0.000  -2.087  -0.000   0.000   0.000   0.000   2.511  -0.000   0.000   0.000
  0.000   0.004   0.000   0.000   0.003   0.000  -0.000  -0.000  -1.921   0.000  -0.121   0.000  -0.000   1.911  -0.000   0.043
  0.000   0.000   0.002  -0.000   0.000  -0.028   0.000   0.000   0.000  -1.429   0.000   0.000   0.000  -0.000   1.702   0.000
  0.000  -0.002   0.000   0.000  -0.024   0.000   0.000   0.000  -0.119   0.000  -1.772   0.000   0.000   0.043   0.000   1.851
  0.000  -0.001  -0.000   0.000   0.002  -0.000   0.000   0.000  -0.117   0.000   0.194   0.000   0.000   0.081   0.000  -0.151
  0.000   0.001  -0.000   0.000  -0.000   0.000   0.000   0.000   0.013   0.000  -0.011   0.000   0.000  -0.007   0.000   0.009
 total augmentation occupancy for first ion, spin component:           2
  0.002  -0.000   0.000   0.008   0.000   0.000   0.000   0.002  -0.000   0.000   0.000   0.000  -0.002   0.000   0.000   0.000
 -0.000   0.002   0.000   0.000   0.007   0.000   0.000   0.000   0.005   0.000   0.004   0.000   0.000  -0.005   0.000  -0.005
  0.000   0.000   0.002   0.000   0.000   0.008   0.000   0.000   0.000   0.011   0.000   0.000   0.000   0.000  -0.012   0.000
  0.008   0.000   0.000  -0.007   0.000   0.000   0.000   0.018   0.000   0.000   0.000   0.000  -0.017   0.000   0.000   0.000
  0.000   0.007   0.000   0.000  -0.001   0.000   0.000   0.000  -0.009   0.000  -0.040   0.000   0.000  -0.006   0.000   0.017
  0.000   0.000   0.008   0.000   0.000  -0.003   0.000   0.000   0.000  -0.069   0.000   0.000   0.000   0.000   0.018   0.000
  0.000   0.000   0.000   0.000   0.000   0.000  -1.860  -0.000  -0.000  -0.000  -0.000   0.818   0.000  -0.000  -0.000  -0.000
  0.002   0.000   0.000   0.018   0.000   0.000  -0.000  -1.857  -0.000   0.000  -0.000   0.000   0.609   0.000   0.000   0.000
 -0.000   0.005   0.000   0.000  -0.009   0.000  -0.000  -0.000  -2.385   0.000  -0.059   0.000   0.000   1.030   0.000   0.067
  0.000   0.000   0.011   0.000   0.000  -0.069  -0.000   0.000   0.000  -1.688   0.000   0.000  -0.000   0.000   0.591  -0.000
  0.000   0.004   0.000   0.000  -0.040   0.000  -0.000  -0.000  -0.059   0.000  -2.196   0.000   0.000   0.067   0.000   0.828
  0.000   0.000   0.000   0.000   0.000   0.000   0.818   0.000   0.000   0.000   0.000  -0.184   0.000   0.000   0.000   0.000
 -0.002   0.000   0.000  -0.017   0.000   0.000   0.000   0.609   0.000  -0.000   0.000   0.000   0.073  -0.000   0.000  -0.000
  0.000  -0.005   0.000   0.000  -0.006   0.000  -0.000   0.000   1.030   0.000   0.067   0.000  -0.000  -0.316   0.000  -0.072
  0.000   0.000  -0.012   0.000   0.000   0.018  -0.000   0.000   0.000   0.591   0.000   0.000   0.000   0.000   0.030   0.000
  0.000  -0.005   0.000   0.000   0.017   0.000  -0.000   0.000   0.067  -0.000   0.828   0.000  -0.000  -0.072   0.000  -0.107
 -0.000  -0.002   0.000   0.000  -0.017  -0.000   0.000   0.000  -0.010   0.000  -0.037   0.000   0.000  -0.008   0.000   0.032
  0.000   0.000  -0.000   0.000  -0.000   0.000   0.000   0.000  -0.007   0.000   0.004   0.000   0.000   0.002   0.000  -0.001


------------------------ aborting loop because EDIFF is reached ----------------------------------------





 total charge

# of ion       s       p       d       tot
------------------------------------------
    1        0.365   6.360   6.068  12.793
    2        0.361   6.352   6.073  12.786
    3        0.361   6.354   6.053  12.769
    4        0.368   6.362   6.052  12.782
    5        0.366   6.360   6.050  12.777
    6        0.361   6.356   6.054  12.772
    7        0.365   6.360   6.068  12.793
    8        0.361   6.352   6.073  12.786
    9        0.361   6.354   6.053  12.769
   10        0.797   0.758   8.048   9.603
   11        0.799   0.750   8.055   9.604
   12        0.785   0.764   8.050   9.599
--------------------------------------------------
tot          5.650  59.481  78.699 143.831



 magnetization (x)

# of ion       s       p       d       tot
------------------------------------------
    1       -0.011  -0.006  -2.295  -2.313
    2        0.001  -0.012   2.509   2.498
    3        0.008   0.003   2.420   2.431
    4       -0.016  -0.022  -2.365  -2.403
    5        0.014   0.022   2.395   2.431
    6        0.001  -0.014   2.624   2.611
    7       -0.011  -0.006  -2.295  -2.313
    8        0.001  -0.012   2.509   2.498
    9        0.008   0.003   2.420   2.431
   10        0.007   0.012  -0.063  -0.044
   11       -0.009  -0.018   0.097   0.069
   12       -0.038  -0.096   0.388   0.254
--------------------------------------------------
tot         -0.046  -0.147   8.343   8.150
 
    CHARGE:  cpu time      0.1475: real time      0.1483
    FORLOC:  cpu time      0.0022: real time      0.0022
    FORNL :  cpu time      0.6939: real time      0.6994
    STRESS:  cpu time      4.2230: real time      4.2583
    FORCOR:  cpu time      0.0208: real time      0.0209
    FORHAR:  cpu time      0.0027: real time      0.0028
    MIXING:  cpu time      0.0099: real time      0.0100
    OFIELD:  cpu time      0.0015: real time      0.0015

  FORCE on cell =-STRESS in cart. coord.  units (eV):
  Direction    XX          YY          ZZ          XY          YZ          ZX
  --------------------------------------------------------------------------------------
  Alpha Z  1149.93331  1149.93331  1149.93331
  Ewald   -6130.53214 -6130.53214 -6148.81108     0.00000    -0.00000    -0.00000
  Hartree  1835.65483  1835.65483  1818.81283    -0.00000    -0.00000    -0.00000
  E(xc)    -944.89985  -944.89985  -944.84534     0.00000    -0.00000     0.00000
  Local    1161.85709  1161.85709  1202.61354     0.00000     0.00000    -0.00000
  n-local  -204.95359  -218.56193  -211.62715    15.25039     0.14123     0.22628
  augment  1438.57886  1438.57886  1434.65839     0.00000     0.00000     0.00000
  Kinetic  1716.35731  1698.27009  1705.24568     3.65775     0.07522     0.08466
  Fock        0.00000     0.00000     0.00000     0.00000     0.00000     0.00000
  -------------------------------------------------------------------------------------
  Total       6.14804     6.14804     5.98017     0.00000     0.00000     0.00000
  in kB      66.55572    66.55572    64.73842     0.00000     0.00000     0.00000
  external pressure =       65.95 kB  Pullay stress =        0.00 kB


 VOLUME and BASIS-vectors are now :
 -----------------------------------------------------------------------------
  energy-cutoff  :      520.00
  volume of cell :      148.00
      direct lattice vectors                 reciprocal lattice vectors
     3.654463374  0.000000000  0.000000000     0.273637987  0.000000000  0.000000000
     0.000000000  3.654463374  0.000000000     0.000000000  0.273637987  0.000000000
     0.000000000  0.000000000 11.081906669     0.000000000  0.000000000  0.090237179

  length of vectors
     3.654463374  3.654463374 11.081906669     0.273637987  0.273637987  0.090237179


 FORCES acting on ions
    electron-ion (+dipol)            ewald-force                    non-local-force                 convergence-correction
 -----------------------------------------------------------------------------------------------
   -.789E-13 0.955E-12 -.135E+01   -.855E-14 0.113E-13 0.456E+00   0.803E-18 0.379E-19 0.882E+00   -.991E-13 -.187E-13 -.520E-02
   -.771E-13 0.189E-11 -.260E+02   0.753E-14 0.403E-14 0.264E+02   -.965E-19 -.978E-18 -.399E+00   -.103E-12 -.241E-13 -.174E-01
   -.711E-13 0.140E-11 0.189E+02   0.172E-13 -.211E-14 -.202E+02   -.848E-19 0.269E-17 0.122E+01   -.921E-13 -.976E-14 0.214E-01
   0.110E-11 0.745E-11 0.627E+02   0.316E-14 0.856E-14 -.605E+02   -.290E-20 -.955E-19 -.225E+01   -.179E-12 0.222E-13 0.339E-01
   0.110E-11 0.669E-11 0.134E+02   -.136E-13 0.711E-13 -.115E+02   0.398E-19 -.599E-18 -.180E+01   -.202E-12 0.572E-14 -.208E-01
   0.110E-11 -.530E-11 -.415E+02   -.664E-15 0.740E-15 0.416E+02   -.223E-18 -.346E-18 -.121E+00   -.214E-12 -.908E-14 -.124E-01
   0.111E-11 -.124E-13 -.135E+01   0.212E-13 -.178E-13 0.456E+00   0.183E-18 -.169E-18 0.882E+00   -.209E-12 -.255E-13 -.520E-02
   0.109E-11 0.109E-12 -.260E+02   -.814E-14 0.107E-13 0.264E+02   0.583E-19 0.289E-18 -.399E+00   -.206E-12 -.258E-13 -.174E-01
   0.108E-11 -.215E-12 0.189E+02   -.210E-13 0.293E-13 -.202E+02   0.101E-17 -.888E-18 0.122E+01   -.195E-12 -.302E-13 0.214E-01
   -.432E-13 -.494E-13 0.180E+02   -.249E-14 -.136E-14 -.183E+02   -.271E-18 0.137E-17 0.220E+00   0.858E-14 -.116E-13 0.252E-01
   -.357E-13 -.187E-13 -.182E+02   0.526E-14 -.625E-13 0.182E+02   0.755E-18 -.700E-18 0.471E-02   0.750E-14 -.128E-13 -.154E-01
   -.398E-13 -.359E-13 -.173E+02   -.395E-14 -.969E-14 0.171E+02   0.238E-19 -.210E-18 0.201E+00   0.859E-14 -.112E-13 -.906E-02
 -----------------------------------------------------------------------------------------------
   0.623E-11 0.129E-10 0.341E+00   -.404E-14 0.424E-13 -.167E-12   0.219E-17 0.396E-18 -.338E+00   -.147E-11 -.151E-12 -.893E-03
 
 
 POSITION                                       TOTAL-FORCE (eV/Angst)
 -----------------------------------------------------------------------------------
      0.00000      1.82723      1.84645        -0.000000     -0.000000     -0.014797
      0.00000      1.82723      5.53199        -0.000000     -0.000000      0.002615
      0.00000      1.82723      9.24463        -0.000000     -0.000000     -0.014445
      1.82723      1.82723      0.04661         0.000000     -0.000000      0.041331
      1.82723      1.82723      3.72179        -0.000000      0.000000      0.008837
      1.82723      1.82723      7.36459         0.000000      0.000000     -0.005837
      1.82723      0.00000      1.84645        -0.000000     -0.000000     -0.014797
      1.82723      0.00000      5.53199         0.000000     -0.000000      0.002615
      1.82723      0.00000      9.24463        -0.000000     -0.000000     -0.014445
      0.00000      0.00000     11.06764        -0.000000     -0.000000      0.000821
      0.00000      0.00000      3.65669        -0.000000     -0.000000     -0.006681
      0.00000      0.00000      7.38797        -0.000000     -0.000000      0.014785
 -----------------------------------------------------------------------------------
    total drift:                                0.000000      0.000000      0.001511


--------------------------------------------------------------------------------------------------------



  FREE ENERGIE OF THE ION-ELECTRON SYSTEM (eV)
  ---------------------------------------------------
  free  energy   TOTEN  =       -93.24447380 eV

  energy  without entropy=      -93.24447380  energy(sigma->0) =      -93.24447380
 


--------------------------------------------------------------------------------------------------------


    POTLOK:  cpu time      0.0396: real time      0.0400


--------------------------------------------------------------------------------------------------------


     LOOP+:  cpu time    232.6925: real time    234.8828
 -----------------------------------------------------------------------------
|                                                                             |
|           W    W    AA    RRRRR   N    N  II  N    N   GGGG   !!!           |
|           W    W   A  A   R    R  NN   N  II  NN   N  G    G  !!!           |
|           W    W  A    A  R    R  N N  N  II  N N  N  G       !!!           |
|           W WW W  AAAAAA  RRRRR   N  N N  II  N  N N  G  GGG   !            |
|           WW  WW  A    A  R   R   N   NN  II  N   NN  G    G                |
|           W    W  A    A  R    R  N    N  II  N    N   GGGG   !!!           |
|                                                                             |
|     Tetrahedron method does not include variations of the Fermi             |
|     occupations, so forces and stress will be inaccurate. We suggest        |
|     using a different smearing scheme ISMEAR = 1 or 2 for metals in         |
|     relaxations.                                                            |
|                                                                             |
 -----------------------------------------------------------------------------

    4ORBIT:  cpu time      0.0000: real time      0.0000



 total charge

# of ion       s       p       d       tot
------------------------------------------
    1        0.365   6.360   6.068  12.793
    2        0.361   6.352   6.073  12.786
    3        0.361   6.354   6.053  12.769
    4        0.368   6.362   6.052  12.782
    5        0.366   6.360   6.050  12.777
    6        0.361   6.356   6.054  12.772
    7        0.365   6.360   6.068  12.793
    8        0.361   6.352   6.073  12.786
    9        0.361   6.354   6.053  12.769
   10        0.797   0.758   8.048   9.603
   11        0.799   0.750   8.055   9.604
   12        0.785   0.764   8.050   9.599
--------------------------------------------------
tot          5.650  59.481  78.699 143.831



 magnetization (x)

# of ion       s       p       d       tot
------------------------------------------
    1       -0.011  -0.006  -2.295  -2.313
    2        0.001  -0.012   2.509   2.498
    3        0.008   0.003   2.420   2.431
    4       -0.016  -0.022  -2.365  -2.403
    5        0.014   0.022   2.395   2.431
    6        0.001  -0.014   2.624   2.611
    7       -0.011  -0.006  -2.295  -2.313
    8        0.001  -0.012   2.509   2.498
    9        0.008   0.003   2.420   2.431
   10        0.007   0.012  -0.063  -0.044
   11       -0.009  -0.018   0.097   0.069
   12       -0.038  -0.096   0.388   0.254
--------------------------------------------------
tot         -0.046  -0.147   8.343   8.150
 
 BZINTS: Fermi energy:   10.549428;  156.000000 electrons
         Band energy:-0.153019E+04;  BLOECHL correction:   -0.021127

 total amount of memory used by VASP MPI-rank0   182150. kBytes
=======================================================================

   base      :      30000. kBytes
   nonl-proj :      98316. kBytes
   fftplans  :        888. kBytes
   grid      :       6813. kBytes
   one-center:        373. kBytes
   wavefun   :      45760. kBytes
 
  
  
 General timing and accounting informations for this job:
 ========================================================
  
                  Total CPU time used (sec):      251.078
                            User time (sec):      242.710
                          System time (sec):        8.368
                         Elapsed time (sec):      259.448
  
                   Maximum memory used (kb):      896788.
                   Average memory used (kb):          N/A
  
                          Minor page faults:       197236
                          Major page faults:          358
                 Voluntary context switches:         8971
