 vasp.6.4.3 19Mar24 (build Mar 26 2024 14:05:37) complex                        
  
 executed on             LinuxIFC date 2024.12.17  00:09:15
 running  128 mpi-ranks, on    1 nodes
 distrk:  each k-point on   32 cores,    4 groups
 distr:  one band on NCORE=   1 cores,   32 groups


--------------------------------------------------------------------------------------------------------


 INCAR:
   ALGO = All
   EDIFF = 1e-06
   EDIFFG = -0.01
   ENCUT = 520
   GGA = Pe
   IBRION = 2
   ISIF = 4
   ISMEAR = 1
   ISPIN = 2
   KPAR = 4
   LCHARG = True
   LORBIT = 11
   LREAL = False
   LWAVE = False
   MAGMOM = 1*-2.321 1*2.504 1*2.437 1*-2.386 1*2.423 1*2.61 1*-2.321 1*2.504 1*2.437 1*-0.044 1*0.066 1*0.256
   NELM = 200
   NSW = 100
   PREC = Accurate
   SIGMA = 0.2

 POTCAR:    PAW_PBE Fe_pv 02Aug2007               
 POTCAR:    PAW_PBE Pt 04Feb2005                  
 -----------------------------------------------------------------------------
|                                                                             |
|           W    W    AA    RRRRR   N    N  II  N    N   GGGG   !!!           |
|           W    W   A  A   R    R  NN   N  II  NN   N  G    G  !!!           |
|           W    W  A    A  R    R  N N  N  II  N N  N  G       !!!           |
|           W WW W  AAAAAA  RRRRR   N  N N  II  N  N N  G  GGG   !            |
|           WW  WW  A    A  R   R   N   NN  II  N   NN  G    G                |
|           W    W  A    A  R    R  N    N  II  N    N   GGGG   !!!           |
|                                                                             |
|     For optimal performance we recommend to set                             |
|       NCORE = 2 up to number-of-cores-per-socket                            |
|     NCORE specifies how many cores store one orbital (NPAR=cpu/NCORE).      |
|     This setting can greatly improve the performance of VASP for DFT.       |
|     The default, NCORE=1 might be grossly inefficient on modern             |
|     multi-core architectures or massively parallel machines. Do your        |
|     own testing! More info at https://www.vasp.at/wiki/index.php/NCORE      |
|     Unfortunately you need to use the default for GW and RPA                |
|     calculations (for HF NCORE is supported but not extensively tested      |
|     yet).                                                                   |
|                                                                             |
 -----------------------------------------------------------------------------

 POTCAR:    PAW_PBE Fe_pv 02Aug2007               
   SHA256 =  5d22e414b1f82158bf2c7ecb8b97b28fd0923e48cadc1c3bf74d524558f5dd32 Fe_pv/POTCAR          
   COPYR  = (c) Copyright 02Aug2007 Georg Kresse                                                    
   COPYR  = This file is part of the software VASP. Any use, copying, and all other rights are regul
   COPYR  = If you do not have a valid VASP license, you may not use, copy or distribute this file. 
   VRHFIN =Fe:  3pd7s1                                                                              
   LEXCH  = PE                                                                                      
   EATOM  =  2457.4239 eV,  180.6156 Ry                                                             
                                                                                                    
   TITEL  = PAW_PBE Fe_pv 02Aug2007                                                                 
   LULTRA =        F    use ultrasoft PP ?                                                          
   IUNSCR =        1    unscreen: 0-lin 1-nonlin 2-no                                               
   RPACOR =    1.750    partial core radius                                                         
   POMASS =   55.847; ZVAL   =   14.000    mass and valenz                                          
   RCORE  =    2.200    outmost cutoff radius                                                       
   RWIGS  =    2.200; RWIGS  =    1.164    wigner-seitz radius (au A)                               
   ENMAX  =  293.238; ENMIN  =  219.928 eV                                                          
   ICORE  =        3    local potential                                                             
   LCOR   =        T    correct aug charges                                                         
   LPAW   =        T    paw PP                                                                      
   EAUG   =  578.342                                                                                
   DEXC   =    0.000                                                                                
   RMAX   =    2.249    core radius for proj-oper                                                   
   RAUG   =    1.300    factor for augmentation sphere                                              
   RDEP   =    2.296    radius for radial grids                                                     
   RDEPT  =    1.766    core radius for aug-charge                                                  
                                                                                                    
   Atomic configuration                                                                             
    8 entries                                                                                       
     n  l   j            E        occ.                                                              
     1  0  0.50     -6993.8440   2.0000                                                             
     2  0  0.50      -814.6047   2.0000                                                             
     2  1  1.50      -693.3689   6.0000                                                             
     3  0  0.50       -89.4732   2.0000                                                             
     3  1  1.50       -55.6373   6.0000                                                             
     3  2  2.50        -3.8151   7.0000                                                             
     4  0  0.50        -4.2551   1.0000                                                             
     4  3  2.50        -1.3606   0.0000                                                             
   Description                                                                                      
     l       E           TYP  RCUT    TYP  RCUT                                                     
     1    -55.6372668     23  2.000                                                                 
     1     -5.4423304     23  2.000                                                                 
     2     -3.8151096     23  2.200                                                                 
     2     -5.1756922     23  2.200                                                                 
     0     -4.2550951     23  2.200                                                                 
     0     27.2116520     23  2.200                                                                 
     3     -1.3605826     23  2.200                                                                 
  local pseudopotential read in
  partial core-charges read in
  partial kinetic energy density read in
  atomic valenz-charges read in
  non local Contribution for L=           1  read in
    real space projection operators read in
  non local Contribution for L=           1  read in
    real space projection operators read in
  non local Contribution for L=           2  read in
    real space projection operators read in
  non local Contribution for L=           2  read in
    real space projection operators read in
  non local Contribution for L=           0  read in
    real space projection operators read in
  non local Contribution for L=           0  read in
    real space projection operators read in
    PAW grid and wavefunctions read in
 
   number of l-projection  operators is LMAX  =           6
   number of lm-projection operators is LMMAX =          18
 
 POTCAR:    PAW_PBE Pt 04Feb2005                  
   SHA256 =  3ed90460adef76debcff1cfb73ee1349b515b1a3db03439735b44de3a8db7dc8 Pt/POTCAR             
   COPYR  = (c) Copyright 04Feb2005 Georg Kresse                                                    
   COPYR  = This file is part of the software VASP. Any use, copying, and all other rights are regul
   COPYR  = If you do not have a valid VASP license, you may not use, copy or distribute this file. 
   VRHFIN =Pt: s1d9                                                                                 
   LEXCH  = PE                                                                                      
   EATOM  =   729.1176 eV,   53.5886 Ry                                                             
                                                                                                    
   TITEL  = PAW_PBE Pt 04Feb2005                                                                    
   LULTRA =        F    use ultrasoft PP ?                                                          
   IUNSCR =        1    unscreen: 0-lin 1-nonlin 2-no                                               
   RPACOR =    2.330    partial core radius                                                         
   POMASS =  195.080; ZVAL   =   10.000    mass and valenz                                          
   RCORE  =    2.600    outmost cutoff radius                                                       
   RWIGS  =    2.750; RWIGS  =    1.455    wigner-seitz radius (au A)                               
   ENMAX  =  230.283; ENMIN  =  172.712 eV                                                          
   ICORE  =        3    local potential                                                             
   LCOR   =        T    correct aug charges                                                         
   LPAW   =        T    paw PP                                                                      
   EAUG   =  358.966                                                                                
   DEXC   =    0.000                                                                                
   RMAX   =    2.658    core radius for proj-oper                                                   
   RAUG   =    1.300    factor for augmentation sphere                                              
   RDEP   =    2.761    radius for radial grids                                                     
   RDEPT  =    2.203    core radius for aug-charge                                                  
                                                                                                    
   Atomic configuration                                                                             
   16 entries                                                                                       
     n  l   j            E        occ.                                                              
     1  0  0.50    -78401.1885   2.0000                                                             
     2  0  0.50    -13770.7750   2.0000                                                             
     2  1  1.50    -11931.0468   6.0000                                                             
     3  0  0.50     -3234.7234   2.0000                                                             
     3  1  1.50     -2699.2216   6.0000                                                             
     3  2  2.50     -2119.5714  10.0000                                                             
     4  0  0.50      -695.1528   2.0000                                                             
     4  1  1.50      -519.6034   6.0000                                                             
     4  2  2.50      -306.6786  10.0000                                                             
     4  3  3.50       -70.1041  14.0000                                                             
     5  0  0.50      -101.7747   2.0000                                                             
     5  1  1.50       -55.9873   6.0000                                                             
     5  2  2.50        -6.1423   9.0000                                                             
     6  0  0.50        -5.6573   1.0000                                                             
     6  1  1.50        -6.8029   0.0000                                                             
     5  3  2.50        -1.3606   0.0000                                                             
   Description                                                                                      
     l       E           TYP  RCUT    TYP  RCUT                                                     
     2     -6.1423404     23  2.500                                                                 
     2     -7.5029230     23  2.500                                                                 
     0     -5.6573207     23  2.500                                                                 
     0      0.7416693     23  2.500                                                                 
     1     -2.7211652     23  2.600                                                                 
     1     20.4087390     23  2.600                                                                 
     3     -1.3605826     23  2.500                                                                 
  local pseudopotential read in
  partial core-charges read in
  partial kinetic energy density read in
  atomic valenz-charges read in
  non local Contribution for L=           2  read in
    real space projection operators read in
  non local Contribution for L=           2  read in
    real space projection operators read in
  non local Contribution for L=           0  read in
    real space projection operators read in
  non local Contribution for L=           0  read in
    real space projection operators read in
  non local Contribution for L=           1  read in
    real space projection operators read in
  non local Contribution for L=           1  read in
    real space projection operators read in
    PAW grid and wavefunctions read in
 
   number of l-projection  operators is LMAX  =           6
   number of lm-projection operators is LMMAX =          18
 
  PAW_PBE Fe_pv 02Aug2007               :
 energy of atom  1       EATOM=-2457.4239
 kinetic energy error for atom=    0.0062 (will be added to EATOM!!)
  PAW_PBE Pt 04Feb2005                  :
 energy of atom  2       EATOM= -729.1176
 kinetic energy error for atom=    0.0032 (will be added to EATOM!!)
 
 
 POSCAR: Fe9 Pt3
  positions in direct lattice
  velocities in cartesian coordinates


 exchange-correlation table for PE
   RHO(1)=    0.500       N(1)  =     2000
   RHO(2)=  100.500       N(2)  =     4000
 


--------------------------------------------------------------------------------------------------------


 ion  position               nearest neighbor table
   1  0.000  0.500  0.167-   4 2.56   4 2.56  11 2.57  11 2.57   7 2.58   7 2.58   7 2.58   7 2.58
                            10 2.61  10 2.61   5 2.62   5 2.62
   2  0.000  0.500  0.499-   5 2.57   5 2.57   8 2.58   8 2.58   8 2.58   8 2.58   6 2.59   6 2.59
                            12 2.60  12 2.60  11 2.62  11 2.62
   3  0.000  0.500  0.834-  10 2.58  10 2.58   9 2.58   9 2.58   9 2.58   9 2.58  12 2.60  12 2.60
                             6 2.62   6 2.62   4 2.62   4 2.62
   4  0.500  0.500  0.004-   1 2.56   7 2.56   7 2.56   1 2.56  10 2.58  10 2.58  10 2.58  10 2.58
                             9 2.62   3 2.62   9 2.62   3 2.62
   5  0.500  0.500  0.336-   2 2.57   8 2.57   8 2.57   2 2.57  11 2.58  11 2.58  11 2.58  11 2.58
                             1 2.62   7 2.62   1 2.62   7 2.62
   6  0.500  0.500  0.665-  12 2.58  12 2.58  12 2.58  12 2.58   8 2.59   2 2.59   2 2.59   8 2.59
                             9 2.62   3 2.62   9 2.62   3 2.62
   7  0.500  0.000  0.167-   4 2.56   4 2.56  11 2.57  11 2.57   1 2.58   1 2.58   1 2.58   1 2.58
                            10 2.61  10 2.61   5 2.62   5 2.62
   8  0.500  0.000  0.499-   5 2.57   5 2.57   2 2.58   2 2.58   2 2.58   2 2.58   6 2.59   6 2.59
                            12 2.60  12 2.60  11 2.62  11 2.62
   9  0.500  0.000  0.834-  10 2.58  10 2.58   3 2.58   3 2.58   3 2.58   3 2.58  12 2.60  12 2.60
                             6 2.62   6 2.62   4 2.62   4 2.62
  10  0.000  0.000  0.999-   3 2.58   9 2.58   3 2.58   9 2.58   4 2.58   4 2.58   4 2.58   4 2.58
                             1 2.61   7 2.61   7 2.61   1 2.61
  11  0.000  0.000  0.330-   1 2.57   7 2.57   1 2.57   7 2.57   5 2.58   5 2.58   5 2.58   5 2.58
                             2 2.62   2 2.62   8 2.62   8 2.62
  12  0.000  0.000  0.667-   6 2.58   6 2.58   6 2.58   6 2.58   2 2.60   8 2.60   8 2.60   2 2.60
                             3 2.60   3 2.60   9 2.60   9 2.60
 
  LATTYP: Found a simple tetragonal cell.
 ALAT       =     3.6544633736
 C/A-ratio  =     3.0324306297
  
  Lattice vectors:
  
 A1 = (   3.6544633736,   0.0000000000,   0.0000000000)
 A2 = (   0.0000000000,   3.6544633736,   0.0000000000)
 A3 = (   0.0000000000,   0.0000000000,  11.0819066690)


Analysis of symmetry for initial positions (statically):
=====================================================================
 Subroutine PRICEL returns:
 Original cell was already a primitive cell.
 

 Routine SETGRP: Setting up the symmetry group for a 
 simple tetragonal supercell.


 Subroutine GETGRP returns: Found  8 space group operations
 (whereof  8 operations were pure point group operations)
 out of a pool of 16 trial point group operations.


The static configuration has the point symmetry C_4v.


Analysis of symmetry for dynamics (positions and initial velocities):
=====================================================================
 Subroutine PRICEL returns:
 Original cell was already a primitive cell.
 

 Routine SETGRP: Setting up the symmetry group for a 
 simple tetragonal supercell.


 Subroutine GETGRP returns: Found  8 space group operations
 (whereof  8 operations were pure point group operations)
 out of a pool of 16 trial point group operations.


The dynamic configuration has the point symmetry C_4v.


Analysis of structural, dynamic, and magnetic symmetry:
=====================================================================
 Subroutine PRICEL returns:
 Original cell was already a primitive cell.
 

 Routine SETGRP: Setting up the symmetry group for a 
 simple tetragonal supercell.


 Subroutine GETGRP returns: Found  8 space group operations
 (whereof  8 operations were pure point group operations)
 out of a pool of 16 trial point group operations.


The overall configuration has the point symmetry C_4v.


 Subroutine INISYM returns: Found  8 space group operations
 (whereof  8 operations are pure point group operations),
 and found     1 'primitive' translations


----------------------------------------------------------------------------------------

                                     Primitive cell                                     

  volume of cell :     148.0000

  direct lattice vectors                    reciprocal lattice vectors
     3.654463374  0.000000000  0.000000000     0.273637987  0.000000000  0.000000000
     0.000000000  3.654463374  0.000000000     0.000000000  0.273637987  0.000000000
     0.000000000  0.000000000 11.081906669     0.000000000  0.000000000  0.090237179

  length of vectors
     3.654463374  3.654463374 11.081906669     0.273637987  0.273637987  0.090237179

  position of ions in fractional coordinates (direct lattice)
     0.000000000  0.500000000  0.166618749
     0.000000000  0.500000000  0.499191176
     0.000000000  0.500000000  0.834209772
     0.500000000  0.500000000  0.004205801
     0.500000000  0.500000000  0.335843569
     0.500000000  0.500000000  0.664559866
     0.500000000  0.000000000  0.166618749
     0.500000000  0.000000000  0.499191176
     0.500000000  0.000000000  0.834209772
     0.000000000  0.000000000  0.998712300
     0.000000000  0.000000000  0.329969457
     0.000000000  0.000000000  0.666669613

  ion indices of the primitive-cell ions
   primitive index   ion index
                 1           1
                 2           2
                 3           3
                 4           4
                 5           5
                 6           6
                 7           7
                 8           8
                 9           9
                10          10
                11          11
                12          12

----------------------------------------------------------------------------------------

 
 
 KPOINTS: pymatgen with grid density = 8800 / numb

Automatic generation of k-mesh.
 Grid dimensions read from file:
 generate k-points for:   13   13    4

 Generating k-lattice:

  Cartesian coordinates                     Fractional coordinates (reciprocal lattice)
     0.021049076  0.000000000  0.000000000     0.076923077  0.000000000  0.000000000
     0.000000000  0.021049076  0.000000000     0.000000000  0.076923077  0.000000000
     0.000000000  0.000000000  0.022559295     0.000000000  0.000000000  0.250000000

  Length of vectors
     0.021049076  0.021049076  0.022559295

  Shift w.r.t. Gamma in fractional coordinates (k-lattice)
     0.000000000  0.000000000  0.000000000

 
 Subroutine IBZKPT returns following result:
 ===========================================
 
 Found     84 irreducible k-points:
 
 Following reciprocal coordinates:
            Coordinates               Weight
  0.000000  0.000000  0.000000      1.000000
  0.076923  0.000000  0.000000      4.000000
  0.153846  0.000000  0.000000      4.000000
  0.230769  0.000000  0.000000      4.000000
  0.307692  0.000000  0.000000      4.000000
  0.384615  0.000000  0.000000      4.000000
  0.461538  0.000000  0.000000      4.000000
  0.076923  0.076923  0.000000      4.000000
  0.153846  0.076923  0.000000      8.000000
  0.230769  0.076923  0.000000      8.000000
  0.307692  0.076923  0.000000      8.000000
  0.384615  0.076923  0.000000      8.000000
  0.461538  0.076923  0.000000      8.000000
  0.153846  0.153846  0.000000      4.000000
  0.230769  0.153846  0.000000      8.000000
  0.307692  0.153846  0.000000      8.000000
  0.384615  0.153846  0.000000      8.000000
  0.461538  0.153846  0.000000      8.000000
  0.230769  0.230769  0.000000      4.000000
  0.307692  0.230769  0.000000      8.000000
  0.384615  0.230769  0.000000      8.000000
  0.461538  0.230769  0.000000      8.000000
  0.307692  0.307692  0.000000      4.000000
  0.384615  0.307692  0.000000      8.000000
  0.461538  0.307692  0.000000      8.000000
  0.384615  0.384615  0.000000      4.000000
  0.461538  0.384615  0.000000      8.000000
  0.461538  0.461538  0.000000      4.000000
  0.000000  0.000000  0.250000      2.000000
  0.076923  0.000000  0.250000      8.000000
  0.153846  0.000000  0.250000      8.000000
  0.230769  0.000000  0.250000      8.000000
  0.307692  0.000000  0.250000      8.000000
  0.384615  0.000000  0.250000      8.000000
  0.461538  0.000000  0.250000      8.000000
  0.076923  0.076923  0.250000      8.000000
  0.153846  0.076923  0.250000     16.000000
  0.230769  0.076923  0.250000     16.000000
  0.307692  0.076923  0.250000     16.000000
  0.384615  0.076923  0.250000     16.000000
  0.461538  0.076923  0.250000     16.000000
  0.153846  0.153846  0.250000      8.000000
  0.230769  0.153846  0.250000     16.000000
  0.307692  0.153846  0.250000     16.000000
  0.384615  0.153846  0.250000     16.000000
  0.461538  0.153846  0.250000     16.000000
  0.230769  0.230769  0.250000      8.000000
  0.307692  0.230769  0.250000     16.000000
  0.384615  0.230769  0.250000     16.000000
  0.461538  0.230769  0.250000     16.000000
  0.307692  0.307692  0.250000      8.000000
  0.384615  0.307692  0.250000     16.000000
  0.461538  0.307692  0.250000     16.000000
  0.384615  0.384615  0.250000      8.000000
  0.461538  0.384615  0.250000     16.000000
  0.461538  0.461538  0.250000      8.000000
  0.000000  0.000000  0.500000      1.000000
  0.076923  0.000000  0.500000      4.000000
  0.153846  0.000000  0.500000      4.000000
  0.230769  0.000000  0.500000      4.000000
  0.307692  0.000000  0.500000      4.000000
  0.384615  0.000000  0.500000      4.000000
  0.461538  0.000000  0.500000      4.000000
  0.076923  0.076923  0.500000      4.000000
  0.153846  0.076923  0.500000      8.000000
  0.230769  0.076923  0.500000      8.000000
  0.307692  0.076923  0.500000      8.000000
  0.384615  0.076923  0.500000      8.000000
  0.461538  0.076923  0.500000      8.000000
  0.153846  0.153846  0.500000      4.000000
  0.230769  0.153846  0.500000      8.000000
  0.307692  0.153846  0.500000      8.000000
  0.384615  0.153846  0.500000      8.000000
  0.461538  0.153846  0.500000      8.000000
  0.230769  0.230769  0.500000      4.000000
  0.307692  0.230769  0.500000      8.000000
  0.384615  0.230769  0.500000      8.000000
  0.461538  0.230769  0.500000      8.000000
  0.307692  0.307692  0.500000      4.000000
  0.384615  0.307692  0.500000      8.000000
  0.461538  0.307692  0.500000      8.000000
  0.384615  0.384615  0.500000      4.000000
  0.461538  0.384615  0.500000      8.000000
  0.461538  0.461538  0.500000      4.000000
 
 Following cartesian coordinates:
            Coordinates               Weight
  0.000000  0.000000  0.000000      1.000000
  0.021049  0.000000  0.000000      4.000000
  0.042098  0.000000  0.000000      4.000000
  0.063147  0.000000  0.000000      4.000000
  0.084196  0.000000  0.000000      4.000000
  0.105245  0.000000  0.000000      4.000000
  0.126294  0.000000  0.000000      4.000000
  0.021049  0.021049  0.000000      4.000000
  0.042098  0.021049  0.000000      8.000000
  0.063147  0.021049  0.000000      8.000000
  0.084196  0.021049  0.000000      8.000000
  0.105245  0.021049  0.000000      8.000000
  0.126294  0.021049  0.000000      8.000000
  0.042098  0.042098  0.000000      4.000000
  0.063147  0.042098  0.000000      8.000000
  0.084196  0.042098  0.000000      8.000000
  0.105245  0.042098  0.000000      8.000000
  0.126294  0.042098  0.000000      8.000000
  0.063147  0.063147  0.000000      4.000000
  0.084196  0.063147  0.000000      8.000000
  0.105245  0.063147  0.000000      8.000000
  0.126294  0.063147  0.000000      8.000000
  0.084196  0.084196  0.000000      4.000000
  0.105245  0.084196  0.000000      8.000000
  0.126294  0.084196  0.000000      8.000000
  0.105245  0.105245  0.000000      4.000000
  0.126294  0.105245  0.000000      8.000000
  0.126294  0.126294  0.000000      4.000000
  0.000000  0.000000  0.022559      2.000000
  0.021049  0.000000  0.022559      8.000000
  0.042098  0.000000  0.022559      8.000000
  0.063147  0.000000  0.022559      8.000000
  0.084196  0.000000  0.022559      8.000000
  0.105245  0.000000  0.022559      8.000000
  0.126294  0.000000  0.022559      8.000000
  0.021049  0.021049  0.022559      8.000000
  0.042098  0.021049  0.022559     16.000000
  0.063147  0.021049  0.022559     16.000000
  0.084196  0.021049  0.022559     16.000000
  0.105245  0.021049  0.022559     16.000000
  0.126294  0.021049  0.022559     16.000000
  0.042098  0.042098  0.022559      8.000000
  0.063147  0.042098  0.022559     16.000000
  0.084196  0.042098  0.022559     16.000000
  0.105245  0.042098  0.022559     16.000000
  0.126294  0.042098  0.022559     16.000000
  0.063147  0.063147  0.022559      8.000000
  0.084196  0.063147  0.022559     16.000000
  0.105245  0.063147  0.022559     16.000000
  0.126294  0.063147  0.022559     16.000000
  0.084196  0.084196  0.022559      8.000000
  0.105245  0.084196  0.022559     16.000000
  0.126294  0.084196  0.022559     16.000000
  0.105245  0.105245  0.022559      8.000000
  0.126294  0.105245  0.022559     16.000000
  0.126294  0.126294  0.022559      8.000000
  0.000000  0.000000  0.045119      1.000000
  0.021049  0.000000  0.045119      4.000000
  0.042098  0.000000  0.045119      4.000000
  0.063147  0.000000  0.045119      4.000000
  0.084196  0.000000  0.045119      4.000000
  0.105245  0.000000  0.045119      4.000000
  0.126294  0.000000  0.045119      4.000000
  0.021049  0.021049  0.045119      4.000000
  0.042098  0.021049  0.045119      8.000000
  0.063147  0.021049  0.045119      8.000000
  0.084196  0.021049  0.045119      8.000000
  0.105245  0.021049  0.045119      8.000000
  0.126294  0.021049  0.045119      8.000000
  0.042098  0.042098  0.045119      4.000000
  0.063147  0.042098  0.045119      8.000000
  0.084196  0.042098  0.045119      8.000000
  0.105245  0.042098  0.045119      8.000000
  0.126294  0.042098  0.045119      8.000000
  0.063147  0.063147  0.045119      4.000000
  0.084196  0.063147  0.045119      8.000000
  0.105245  0.063147  0.045119      8.000000
  0.126294  0.063147  0.045119      8.000000
  0.084196  0.084196  0.045119      4.000000
  0.105245  0.084196  0.045119      8.000000
  0.126294  0.084196  0.045119      8.000000
  0.105245  0.105245  0.045119      4.000000
  0.126294  0.105245  0.045119      8.000000
  0.126294  0.126294  0.045119      4.000000
 


--------------------------------------------------------------------------------------------------------




 Dimension of arrays:
   k-points           NKPTS =     84   k-points in BZ     NKDIM =     84   number of bands    NBANDS=    128
   number of dos      NEDOS =    301   number of ions     NIONS =     12
   non local maximal  LDIM  =      6   non local SUM 2l+1 LMDIM =     18
   total plane-waves  NPLWV =  65856
   max r-space proj   IRMAX =      1   max aug-charges    IRDMAX=  27147
   dimension x,y,z NGX =    28 NGY =   28 NGZ =   84
   dimension x,y,z NGXF=    56 NGYF=   56 NGZF=  168
   support grid    NGXF=    56 NGYF=   56 NGZF=  168
   ions per type =               9   3
   NGX,Y,Z   is equivalent  to a cutoff of  12.74, 12.74, 12.60 a.u.
   NGXF,Y,Z  is equivalent  to a cutoff of  25.48, 25.48, 25.20 a.u.

 SYSTEM =  unknown system                          
 POSCAR =  Fe9 Pt3                                 

 Startparameter for this run:
   NWRITE =      2    write-flag & timer
   PREC   = accura    normal or accurate (medium, high low for compatibility)
   ISTART =      0    job   : 0-new  1-cont  2-samecut
   ICHARG =      2    charge: 1-file 2-atom 10-const
   ISPIN  =      2    spin polarized calculation?
   LNONCOLLINEAR =      F non collinear calculations
   LSORBIT =      F    spin-orbit coupling
   INIWAV =      1    electr: 0-lowe 1-rand  2-diag
   LASPH  =      F    aspherical Exc in radial PAW
 Electronic Relaxation 1
   ENCUT  =  520.0 eV  38.22 Ry    6.18 a.u.   6.79  6.79 20.61*2*pi/ulx,y,z
   ENINI  =  520.0     initial cutoff
   ENAUG  =  578.3 eV  augmentation charge cutoff
   NELM   =    200;   NELMIN=  2; NELMDL=  0     # of ELM steps 
   EDIFF  = 0.1E-05   stopping-criterion for ELM
   LREAL  =      F    real-space projection
   NLSPLINE    = F    spline interpolate recip. space projectors
   LCOMPAT=      F    compatible to vasp.4.4
   GGA_COMPAT  = T    GGA compatible to vasp.4.4-vasp.4.6
   LMAXPAW     = -100 max onsite density
   LMAXMIX     =    2 max onsite mixed and CHGCAR
   VOSKOWN=      0    Vosko Wilk Nusair interpolation
   ROPT   =    0.00000   0.00000
 Ionic relaxation
   EDIFFG = -.1E-01   stopping-criterion for IOM
   NSW    =    100    number of steps for IOM
   NBLOCK =      1;   KBLOCK =    100    inner block; outer block 
   IBRION =      2    ionic relax: 0-MD 1-quasi-New 2-CG
   NFREE  =      1    steps in history (QN), initial steepest desc. (CG)
   ISIF   =      4    stress and relaxation
   IWAVPR =     11    prediction:  0-non 1-charg 2-wave 3-comb
   ISYM   =      2    0-nonsym 1-usesym 2-fastsym
   LCORR  =      T    Harris-Foulkes like correction to forces

   POTIM  = 0.5000    time-step for ionic-motion
   TEIN   =    0.0    initial temperature
   TEBEG  =    0.0;   TEEND  =   0.0 temperature during run
   SMASS  =  -3.00    Nose mass-parameter (am)
   estimated Nose-frequenzy (Omega)   =  0.10E-29 period in steps = 0.13E+47 mass=  -0.305E-27a.u.
   SCALEE = 1.0000    scale energy and forces
   NPACO  =    256;   APACO  = 10.0  distance and # of slots for P.C.
   PSTRESS=    0.0 pullay stress

  Mass of Ions in am
   POMASS =  55.85195.08
  Ionic Valenz
   ZVAL   =  14.00 10.00
  Atomic Wigner-Seitz radii
   RWIGS  =  -1.00 -1.00
  virtual crystal weights 
   VCA    =   1.00  1.00
   NELECT =     156.0000    total number of electrons
   NUPDOWN=      -1.0000    fix difference up-down

 DOS related values:
   EMIN   =  10.00;   EMAX   =-10.00  energy-range for DOS
   EFERMI =   0.00;   METHOD = LEGACY      
   ISMEAR =     1;   SIGMA  =   0.20  broadening in eV -4-tet -1-fermi 0-gaus

 Electronic relaxation 2 (details)
   IALGO  =     58    algorithm
   LDIAG  =      T    sub-space diagonalisation (order eigenvalues)
   LSUBROT=      F    optimize rotation matrix (better conditioning)
   TURBO    =      0    0=normal 1=particle mesh
   IRESTART =      0    0=no restart 2=restart with 2 vectors
   NREBOOT  =      0    no. of reboots
   NMIN     =      0    reboot dimension
   EREF     =   0.00    reference energy to select bands
   IMIX   =      4    mixing-type and parameters
     AMIX     =   0.40;   BMIX     =  1.00
     AMIX_MAG =   1.60;   BMIX_MAG =  1.00
     AMIN     =   0.10
     WC   =   100.;   INIMIX=   1;  MIXPRE=   1;  MAXMIX= -45

 Intra band minimization:
   WEIMIN = 0.0010     energy-eigenvalue tresh-hold
   EBREAK =  0.20E-08  absolut break condition
   DEPER  =   0.30     relativ break condition  

   TIME   =   0.40     timestep for ELM

  volume/ion in A,a.u.               =      12.33        83.23
  Fermi-wavevector in a.u.,A,eV,Ry     =   1.666080  3.148434 37.767349  2.775822
  Thomas-Fermi vector in A             =   2.752338
 
 Write flags
   LWAVE        =      F    write WAVECAR
   LDOWNSAMPLE  =      F    k-point downsampling of WAVECAR
   LCHARG       =      T    write CHGCAR
   LVTOT        =      F    write LOCPOT, total local potential
   LVHAR        =      F    write LOCPOT, Hartree potential only
   WRT_POTENTIAL= false  ! write potential to hdf5 file
   LELF         =      F    write electronic localiz. function (ELF)
   LORBIT       =     11    0 simple, 1 ext, 2 COOP (PROOUT), +10 PAW based schemes


 Dipole corrections
   LMONO      =      F    monopole corrections only (constant potential shift)
   LDIPOL     =      F    correct potential (dipole corrections)
   IDIPOL     =      0    1-x, 2-y, 3-z, 4-all directions 
   EPSILON    =  1.0000000 bulk dielectric constant
   LVACPOTAV  =      F  vacuum potentials using an averaging scheme for the charge density
   VACPOTFLAT =  0.1000000 required flatness to determine vacuum potential
 Exchange correlation treatment:
   GGA     = PE    functional components
   XC_C    = 1    coefficients multiplying the functional components
   LIBXC   =     F    Libxc                    
   VOSKOWN =     0    Vosko Wilk Nusair interpolation
   LHFCALC =     F    Hartree Fock is set to
   LHFONE  =     F    Hartree Fock one center treatment
   AEXX    =    0.0000 exact exchange contribution

 Parameters of functionals:
   PE:
     No parameter
 
 Van der Waals corrections
   IVDW    =     0    specifies the selected vdW correction

 Linear response parameters
   LEPSILON=     F    determine dielectric tensor
   LRPA    =     F    only Hartree local field effects (RPA)
   LNABLA  =     F    use nabla operator in PAW spheres
   LVEL    =     F    velocity operator in full k-point grid
   CSHIFT  =0.1000    complex shift for real part using Kramers Kronig
   OMEGAMAX=  -1.0    maximum frequency
   DEG_THRESHOLD= 0.2000000E-02 threshold for treating states as degnerate
   RTIME   =   -0.100 relaxation time in fs
  (WPLASMAI=    0.000 imaginary part of plasma frequency in eV, 0.658/RTIME)
   DFIELD  = 0.0000000 0.0000000 0.0000000 field for delta impulse in time
 
  Optional k-point grid parameters
   LKPOINTS_OPT  =     F    use optional k-point grid
   KPOINTS_OPT_MODE=     1    mode for optional k-point grid
 
 Orbital magnetization related:
   ORBITALMAG=     F  switch on orbital magnetization
   LCHIMAG   =     F  perturbation theory with respect to B field
   DQ        =  0.001000  dq finite difference perturbation B field
   LLRAUG    =     F  two centre corrections for induced B field
   LBONE     =     F  B-component reconstruction in AE one-centre
   LVGVCALC  =     T  calculate vGv susceptibility
   LVGVAPPL  =     F  apply vGv susceptibility instead of pGv for G=0

 Random number generation:
   RANDOM_GENERATOR = DEFAULT
   PCG_SEED         = not used


--------------------------------------------------------------------------------------------------------


 conjugate gradient relaxation of ions
 charge density and potential will be updated during run
 spin polarized calculation
 Conjugate gradient for all bands (Freysoldt, et al. PRB 79, 241103 (2009))
 preconditioned conjugated gradient                                        
 perform sub-space diagonalisation
    before iterative eigenvector-optimisation
 modified Broyden-mixing scheme, WC =      100.0
 initial mixing is a Kerker type mixing with AMIX =  0.4000 and BMIX =      1.0000
 Hartree-type preconditioning will be used
 using additional bands           50
 reciprocal scheme for non local part
 use partial core corrections
 no Harris-corrections to forces 
 use gradient corrections 
 use of overlap-Matrix (Vanderbilt PP)
 Methfessel and Paxton  Order N= 1 SIGMA  =   0.20


--------------------------------------------------------------------------------------------------------


  energy-cutoff  :      520.00
  volume of cell :      148.00
      direct lattice vectors                 reciprocal lattice vectors
     3.654463374  0.000000000  0.000000000     0.273637987  0.000000000  0.000000000
     0.000000000  3.654463374  0.000000000     0.000000000  0.273637987  0.000000000
     0.000000000  0.000000000 11.081906669     0.000000000  0.000000000  0.090237179

  length of vectors
     3.654463374  3.654463374 11.081906669     0.273637987  0.273637987  0.090237179


 
 k-points in units of 2pi/SCALE and weight: pymatgen with grid density = 8800 / numb
   0.00000000  0.00000000  0.00000000       0.001
   0.02104908  0.00000000  0.00000000       0.006
   0.04209815  0.00000000  0.00000000       0.006
   0.06314723  0.00000000  0.00000000       0.006
   0.08419630  0.00000000  0.00000000       0.006
   0.10524538  0.00000000  0.00000000       0.006
   0.12629446  0.00000000  0.00000000       0.006
   0.02104908  0.02104908  0.00000000       0.006
   0.04209815  0.02104908  0.00000000       0.012
   0.06314723  0.02104908  0.00000000       0.012
   0.08419630  0.02104908  0.00000000       0.012
   0.10524538  0.02104908  0.00000000       0.012
   0.12629446  0.02104908  0.00000000       0.012
   0.04209815  0.04209815  0.00000000       0.006
   0.06314723  0.04209815  0.00000000       0.012
   0.08419630  0.04209815  0.00000000       0.012
   0.10524538  0.04209815  0.00000000       0.012
   0.12629446  0.04209815  0.00000000       0.012
   0.06314723  0.06314723  0.00000000       0.006
   0.08419630  0.06314723  0.00000000       0.012
   0.10524538  0.06314723  0.00000000       0.012
   0.12629446  0.06314723  0.00000000       0.012
   0.08419630  0.08419630  0.00000000       0.006
   0.10524538  0.08419630  0.00000000       0.012
   0.12629446  0.08419630  0.00000000       0.012
   0.10524538  0.10524538  0.00000000       0.006
   0.12629446  0.10524538  0.00000000       0.012
   0.12629446  0.12629446  0.00000000       0.006
   0.00000000  0.00000000  0.02255929       0.003
   0.02104908  0.00000000  0.02255929       0.012
   0.04209815  0.00000000  0.02255929       0.012
   0.06314723  0.00000000  0.02255929       0.012
   0.08419630  0.00000000  0.02255929       0.012
   0.10524538  0.00000000  0.02255929       0.012
   0.12629446  0.00000000  0.02255929       0.012
   0.02104908  0.02104908  0.02255929       0.012
   0.04209815  0.02104908  0.02255929       0.024
   0.06314723  0.02104908  0.02255929       0.024
   0.08419630  0.02104908  0.02255929       0.024
   0.10524538  0.02104908  0.02255929       0.024
   0.12629446  0.02104908  0.02255929       0.024
   0.04209815  0.04209815  0.02255929       0.012
   0.06314723  0.04209815  0.02255929       0.024
   0.08419630  0.04209815  0.02255929       0.024
   0.10524538  0.04209815  0.02255929       0.024
   0.12629446  0.04209815  0.02255929       0.024
   0.06314723  0.06314723  0.02255929       0.012
   0.08419630  0.06314723  0.02255929       0.024
   0.10524538  0.06314723  0.02255929       0.024
   0.12629446  0.06314723  0.02255929       0.024
   0.08419630  0.08419630  0.02255929       0.012
   0.10524538  0.08419630  0.02255929       0.024
   0.12629446  0.08419630  0.02255929       0.024
   0.10524538  0.10524538  0.02255929       0.012
   0.12629446  0.10524538  0.02255929       0.024
   0.12629446  0.12629446  0.02255929       0.012
   0.00000000  0.00000000  0.04511859       0.001
   0.02104908  0.00000000  0.04511859       0.006
   0.04209815  0.00000000  0.04511859       0.006
   0.06314723  0.00000000  0.04511859       0.006
   0.08419630  0.00000000  0.04511859       0.006
   0.10524538  0.00000000  0.04511859       0.006
   0.12629446  0.00000000  0.04511859       0.006
   0.02104908  0.02104908  0.04511859       0.006
   0.04209815  0.02104908  0.04511859       0.012
   0.06314723  0.02104908  0.04511859       0.012
   0.08419630  0.02104908  0.04511859       0.012
   0.10524538  0.02104908  0.04511859       0.012
   0.12629446  0.02104908  0.04511859       0.012
   0.04209815  0.04209815  0.04511859       0.006
   0.06314723  0.04209815  0.04511859       0.012
   0.08419630  0.04209815  0.04511859       0.012
   0.10524538  0.04209815  0.04511859       0.012
   0.12629446  0.04209815  0.04511859       0.012
   0.06314723  0.06314723  0.04511859       0.006
   0.08419630  0.06314723  0.04511859       0.012
   0.10524538  0.06314723  0.04511859       0.012
   0.12629446  0.06314723  0.04511859       0.012
   0.08419630  0.08419630  0.04511859       0.006
   0.10524538  0.08419630  0.04511859       0.012
   0.12629446  0.08419630  0.04511859       0.012
   0.10524538  0.10524538  0.04511859       0.006
   0.12629446  0.10524538  0.04511859       0.012
   0.12629446  0.12629446  0.04511859       0.006
 
 k-points in reciprocal lattice and weights: pymatgen with grid density = 8800 / numb
   0.00000000  0.00000000  0.00000000       0.001
   0.07692308  0.00000000  0.00000000       0.006
   0.15384615  0.00000000  0.00000000       0.006
   0.23076923  0.00000000  0.00000000       0.006
   0.30769231  0.00000000  0.00000000       0.006
   0.38461538  0.00000000  0.00000000       0.006
   0.46153846  0.00000000  0.00000000       0.006
   0.07692308  0.07692308  0.00000000       0.006
   0.15384615  0.07692308  0.00000000       0.012
   0.23076923  0.07692308  0.00000000       0.012
   0.30769231  0.07692308  0.00000000       0.012
   0.38461538  0.07692308  0.00000000       0.012
   0.46153846  0.07692308  0.00000000       0.012
   0.15384615  0.15384615  0.00000000       0.006
   0.23076923  0.15384615  0.00000000       0.012
   0.30769231  0.15384615  0.00000000       0.012
   0.38461538  0.15384615  0.00000000       0.012
   0.46153846  0.15384615  0.00000000       0.012
   0.23076923  0.23076923  0.00000000       0.006
   0.30769231  0.23076923  0.00000000       0.012
   0.38461538  0.23076923  0.00000000       0.012
   0.46153846  0.23076923  0.00000000       0.012
   0.30769231  0.30769231  0.00000000       0.006
   0.38461538  0.30769231  0.00000000       0.012
   0.46153846  0.30769231  0.00000000       0.012
   0.38461538  0.38461538  0.00000000       0.006
   0.46153846  0.38461538  0.00000000       0.012
   0.46153846  0.46153846  0.00000000       0.006
   0.00000000  0.00000000  0.25000000       0.003
   0.07692308  0.00000000  0.25000000       0.012
   0.15384615  0.00000000  0.25000000       0.012
   0.23076923  0.00000000  0.25000000       0.012
   0.30769231  0.00000000  0.25000000       0.012
   0.38461538  0.00000000  0.25000000       0.012
   0.46153846  0.00000000  0.25000000       0.012
   0.07692308  0.07692308  0.25000000       0.012
   0.15384615  0.07692308  0.25000000       0.024
   0.23076923  0.07692308  0.25000000       0.024
   0.30769231  0.07692308  0.25000000       0.024
   0.38461538  0.07692308  0.25000000       0.024
   0.46153846  0.07692308  0.25000000       0.024
   0.15384615  0.15384615  0.25000000       0.012
   0.23076923  0.15384615  0.25000000       0.024
   0.30769231  0.15384615  0.25000000       0.024
   0.38461538  0.15384615  0.25000000       0.024
   0.46153846  0.15384615  0.25000000       0.024
   0.23076923  0.23076923  0.25000000       0.012
   0.30769231  0.23076923  0.25000000       0.024
   0.38461538  0.23076923  0.25000000       0.024
   0.46153846  0.23076923  0.25000000       0.024
   0.30769231  0.30769231  0.25000000       0.012
   0.38461538  0.30769231  0.25000000       0.024
   0.46153846  0.30769231  0.25000000       0.024
   0.38461538  0.38461538  0.25000000       0.012
   0.46153846  0.38461538  0.25000000       0.024
   0.46153846  0.46153846  0.25000000       0.012
   0.00000000  0.00000000  0.50000000       0.001
   0.07692308  0.00000000  0.50000000       0.006
   0.15384615  0.00000000  0.50000000       0.006
   0.23076923  0.00000000  0.50000000       0.006
   0.30769231  0.00000000  0.50000000       0.006
   0.38461538  0.00000000  0.50000000       0.006
   0.46153846  0.00000000  0.50000000       0.006
   0.07692308  0.07692308  0.50000000       0.006
   0.15384615  0.07692308  0.50000000       0.012
   0.23076923  0.07692308  0.50000000       0.012
   0.30769231  0.07692308  0.50000000       0.012
   0.38461538  0.07692308  0.50000000       0.012
   0.46153846  0.07692308  0.50000000       0.012
   0.15384615  0.15384615  0.50000000       0.006
   0.23076923  0.15384615  0.50000000       0.012
   0.30769231  0.15384615  0.50000000       0.012
   0.38461538  0.15384615  0.50000000       0.012
   0.46153846  0.15384615  0.50000000       0.012
   0.23076923  0.23076923  0.50000000       0.006
   0.30769231  0.23076923  0.50000000       0.012
   0.38461538  0.23076923  0.50000000       0.012
   0.46153846  0.23076923  0.50000000       0.012
   0.30769231  0.30769231  0.50000000       0.006
   0.38461538  0.30769231  0.50000000       0.012
   0.46153846  0.30769231  0.50000000       0.012
   0.38461538  0.38461538  0.50000000       0.006
   0.46153846  0.38461538  0.50000000       0.012
   0.46153846  0.46153846  0.50000000       0.006
 
 position of ions in fractional coordinates (direct lattice) 
   0.00000000  0.50000000  0.16661875
   0.00000000  0.50000000  0.49919118
   0.00000000  0.50000000  0.83420977
   0.50000000  0.50000000  0.00420580
   0.50000000  0.50000000  0.33584357
   0.50000000  0.50000000  0.66455987
   0.50000000  0.00000000  0.16661875
   0.50000000  0.00000000  0.49919118
   0.50000000  0.00000000  0.83420977
   0.00000000  0.00000000  0.99871230
   0.00000000  0.00000000  0.32996946
   0.00000000  0.00000000  0.66666961
 
 position of ions in cartesian coordinates  (Angst):
   0.00000000  1.82723169  1.84645342
   0.00000000  1.82723169  5.53199002
   0.00000000  1.82723169  9.24463484
   1.82723169  1.82723169  0.04660829
   1.82723169  1.82723169  3.72178709
   1.82723169  1.82723169  7.36459041
   1.82723169  0.00000000  1.84645342
   1.82723169  0.00000000  5.53199002
   1.82723169  0.00000000  9.24463484
   0.00000000  0.00000000 11.06763650
   0.00000000  0.00000000  3.65669073
   0.00000000  0.00000000  7.38797043
 


--------------------------------------------------------------------------------------------------------


 k-point     1 :   0.0000 0.0000 0.0000  plane waves:    3993
 k-point     2 :   0.0769 0.0000 0.0000  plane waves:    3997
 k-point     3 :   0.1538 0.0000 0.0000  plane waves:    3989
 k-point     4 :   0.2308 0.0000 0.0000  plane waves:    3980
 k-point     5 :   0.3077 0.0000 0.0000  plane waves:    3980
 k-point     6 :   0.3846 0.0000 0.0000  plane waves:    3996
 k-point     7 :   0.4615 0.0000 0.0000  plane waves:    3970
 k-point     8 :   0.0769 0.0769 0.0000  plane waves:    3983
 k-point     9 :   0.1538 0.0769 0.0000  plane waves:    3998
 k-point    10 :   0.2308 0.0769 0.0000  plane waves:    3979
 k-point    11 :   0.3077 0.0769 0.0000  plane waves:    3975
 k-point    12 :   0.3846 0.0769 0.0000  plane waves:    3991
 k-point    13 :   0.4615 0.0769 0.0000  plane waves:    3973
 k-point    14 :   0.1538 0.1538 0.0000  plane waves:    3987
 k-point    15 :   0.2308 0.1538 0.0000  plane waves:    3969
 k-point    16 :   0.3077 0.1538 0.0000  plane waves:    3978
 k-point    17 :   0.3846 0.1538 0.0000  plane waves:    3989
 k-point    18 :   0.4615 0.1538 0.0000  plane waves:    3981
 k-point    19 :   0.2308 0.2308 0.0000  plane waves:    3976
 k-point    20 :   0.3077 0.2308 0.0000  plane waves:    3974
 k-point    21 :   0.3846 0.2308 0.0000  plane waves:    4000
 k-point    22 :   0.4615 0.2308 0.0000  plane waves:    3990
 k-point    23 :   0.3077 0.3077 0.0000  plane waves:    3984
 k-point    24 :   0.3846 0.3077 0.0000  plane waves:    3981
 k-point    25 :   0.4615 0.3077 0.0000  plane waves:    3997
 k-point    26 :   0.3846 0.3846 0.0000  plane waves:    3990
 k-point    27 :   0.4615 0.3846 0.0000  plane waves:    4000
 k-point    28 :   0.4615 0.4615 0.0000  plane waves:    4028
 k-point    29 :   0.0000 0.0000 0.2500  plane waves:    3989
 k-point    30 :   0.0769 0.0000 0.2500  plane waves:    3992
 k-point    31 :   0.1538 0.0000 0.2500  plane waves:    3983
 k-point    32 :   0.2308 0.0000 0.2500  plane waves:    3979
 k-point    33 :   0.3077 0.0000 0.2500  plane waves:    3983
 k-point    34 :   0.3846 0.0000 0.2500  plane waves:    3982
 k-point    35 :   0.4615 0.0000 0.2500  plane waves:    3977
 k-point    36 :   0.0769 0.0769 0.2500  plane waves:    3987
 k-point    37 :   0.1538 0.0769 0.2500  plane waves:    3978
 k-point    38 :   0.2308 0.0769 0.2500  plane waves:    3987
 k-point    39 :   0.3077 0.0769 0.2500  plane waves:    3982
 k-point    40 :   0.3846 0.0769 0.2500  plane waves:    3983
 k-point    41 :   0.4615 0.0769 0.2500  plane waves:    3977
 k-point    42 :   0.1538 0.1538 0.2500  plane waves:    3979
 k-point    43 :   0.2308 0.1538 0.2500  plane waves:    3980
 k-point    44 :   0.3077 0.1538 0.2500  plane waves:    3986
 k-point    45 :   0.3846 0.1538 0.2500  plane waves:    3978
 k-point    46 :   0.4615 0.1538 0.2500  plane waves:    3975
 k-point    47 :   0.2308 0.2308 0.2500  plane waves:    3974
 k-point    48 :   0.3077 0.2308 0.2500  plane waves:    3973
 k-point    49 :   0.3846 0.2308 0.2500  plane waves:    3982
 k-point    50 :   0.4615 0.2308 0.2500  plane waves:    3991
 k-point    51 :   0.3077 0.3077 0.2500  plane waves:    3986
 k-point    52 :   0.3846 0.3077 0.2500  plane waves:    3992
 k-point    53 :   0.4615 0.3077 0.2500  plane waves:    3996
 k-point    54 :   0.3846 0.3846 0.2500  plane waves:    3997
 k-point    55 :   0.4615 0.3846 0.2500  plane waves:    3997
 k-point    56 :   0.4615 0.4615 0.2500  plane waves:    4002
 k-point    57 :   0.0000 0.0000 0.5000  plane waves:    4002
 k-point    58 :   0.0769 0.0000 0.5000  plane waves:    3980
 k-point    59 :   0.1538 0.0000 0.5000  plane waves:    3980
 k-point    60 :   0.2308 0.0000 0.5000  plane waves:    3970
 k-point    61 :   0.3077 0.0000 0.5000  plane waves:    3994
 k-point    62 :   0.3846 0.0000 0.5000  plane waves:    3986
 k-point    63 :   0.4615 0.0000 0.5000  plane waves:    3990
 k-point    64 :   0.0769 0.0769 0.5000  plane waves:    3988
 k-point    65 :   0.1538 0.0769 0.5000  plane waves:    3966
 k-point    66 :   0.2308 0.0769 0.5000  plane waves:    3978
 k-point    67 :   0.3077 0.0769 0.5000  plane waves:    3990
 k-point    68 :   0.3846 0.0769 0.5000  plane waves:    3984
 k-point    69 :   0.4615 0.0769 0.5000  plane waves:    3978
 k-point    70 :   0.1538 0.1538 0.5000  plane waves:    3978
 k-point    71 :   0.2308 0.1538 0.5000  plane waves:    3978
 k-point    72 :   0.3077 0.1538 0.5000  plane waves:    3984
 k-point    73 :   0.3846 0.1538 0.5000  plane waves:    3994
 k-point    74 :   0.4615 0.1538 0.5000  plane waves:    3962
 k-point    75 :   0.2308 0.2308 0.5000  plane waves:    3982
 k-point    76 :   0.3077 0.2308 0.5000  plane waves:    3982
 k-point    77 :   0.3846 0.2308 0.5000  plane waves:    3978
 k-point    78 :   0.4615 0.2308 0.5000  plane waves:    3986
 k-point    79 :   0.3077 0.3077 0.5000  plane waves:    3980
 k-point    80 :   0.3846 0.3077 0.5000  plane waves:    3990
 k-point    81 :   0.4615 0.3077 0.5000  plane waves:    3986
 k-point    82 :   0.3846 0.3846 0.5000  plane waves:    3996
 k-point    83 :   0.4615 0.3846 0.5000  plane waves:    4002
 k-point    84 :   0.4615 0.4615 0.5000  plane waves:    4010

 maximum and minimum number of plane-waves per node :      4028     3962

 maximum number of plane-waves:      4028
 maximum index in each direction: 
   IXMAX=    6   IYMAX=    6   IZMAX=   20
   IXMIN=   -7   IYMIN=   -7   IZMIN=  -21


 serial   3D FFT for wavefunctions
 parallel 3D FFT for charge:
    minimum data exchange during FFTs selected (reduces bandwidth)


 total amount of memory used by VASP MPI-rank0   273670. kBytes
=======================================================================

   base      :      30000. kBytes
   nonl-proj :      98316. kBytes
   fftplans  :        888. kBytes
   grid      :       6813. kBytes
   one-center:        373. kBytes
   wavefun   :     137280. kBytes
 
     INWAV:  cpu time      0.0001: real time      0.0001
 Broyden mixing: mesh for mixing (old mesh)
   NGX = 13   NGY = 13   NGZ = 41
  (NGX  = 56   NGY  = 56   NGZ  =168)
  gives a total of   6929 points

 initial charge density was supplied:
 charge density of overlapping atoms calculated
 number of electron     156.0000000 magnetization       8.1650000
 charge density for first step will be calculated from the start-wavefunctions


--------------------------------------------------------------------------------------------------------


 Maximum index for augmentation-charges         1063 (set IRDMAX)


--------------------------------------------------------------------------------------------------------


 First call to EWALD:  gamma=   0.335
 Maximum number of real-space cells 4x 4x 2
 Maximum number of reciprocal cells 2x 2x 5

    FEWALD:  cpu time      0.0017: real time      0.0018


--------------------------------------- Ionic step        1  -------------------------------------------




--------------------------------------- Iteration      1(   1)  ---------------------------------------


    POTLOK:  cpu time      0.0358: real time      0.0364
    SETDIJ:  cpu time      0.0084: real time      0.0086
    TRIAL :  cpu time      5.8820: real time      5.9256
    CORREC:  cpu time      0.0039: real time      0.0040
    --------------------------------------------
      LOOP:  cpu time      6.0345: real time      6.1005

 eigenvalue-minimisations  : 43136
 total energy-change (2. order) : 0.1762812E+04  (-0.9139723E+04)
 number of electron     156.0000000 magnetization       8.1650000
 augmentation part      156.0000000 magnetization       8.1650000

 Free energy of the ion-electron system (eV)
  ---------------------------------------------------
  alpha Z        PSCENC =      1149.93330786
  Ewald energy   TEWEN  =    -18409.85296048
  -Hartree energ DENC   =     -5833.43734434
  -exchange      EXHF   =         0.00000000
  -V(xc)+E(xc)   XCENC  =       658.40667920
  PAW double counting   =     20095.06516302   -20819.09463550
  entropy T*S    EENTRO =        -0.00399708
  eigenvalues    EBANDS =       617.69273687
  atomic energy  EATOM  =     24304.10294433
  ---------------------------------------------------
  free energy    TOTEN  =      1762.81189388 eV

  energy without entropy =     1762.81589096  energy(sigma->0) =     1762.81322624


--------------------------------------------------------------------------------------------------------




--------------------------------------- Iteration      1(   2)  ---------------------------------------


    TRIAL :  cpu time      6.0079: real time      6.0487
    CORREC:  cpu time      0.0024: real time      0.0025
    --------------------------------------------
      LOOP:  cpu time      6.0218: real time      6.0730

 eigenvalue-minimisations  : 43008
 total energy-change (2. order) :-0.1757358E+04  (-0.1667864E+04)
 number of electron     156.0000000 magnetization       8.1650000
 augmentation part      156.0000000 magnetization       8.1650000

 Free energy of the ion-electron system (eV)
  ---------------------------------------------------
  alpha Z        PSCENC =      1149.93330786
  Ewald energy   TEWEN  =    -18409.85296048
  -Hartree energ DENC   =     -5833.43734434
  -exchange      EXHF   =         0.00000000
  -V(xc)+E(xc)   XCENC  =       658.40667920
  PAW double counting   =     20095.06516302   -20819.09463550
  entropy T*S    EENTRO =         0.00430347
  eigenvalues    EBANDS =     -1139.67377560
  atomic energy  EATOM  =     24304.10294433
  ---------------------------------------------------
  free energy    TOTEN  =         5.45368197 eV

  energy without entropy =        5.44937849  energy(sigma->0) =        5.45224747


--------------------------------------------------------------------------------------------------------




--------------------------------------- Iteration      1(   3)  ---------------------------------------


    TRIAL :  cpu time      6.7915: real time      6.8376
    CORREC:  cpu time      0.0025: real time      0.0025
    --------------------------------------------
      LOOP:  cpu time      6.8040: real time      6.8619

 eigenvalue-minimisations  : 50624
 total energy-change (2. order) :-0.1089989E+03  (-0.1076602E+03)
 number of electron     156.0000000 magnetization       8.1650000
 augmentation part      156.0000000 magnetization       8.1650000

 Free energy of the ion-electron system (eV)
  ---------------------------------------------------
  alpha Z        PSCENC =      1149.93330786
  Ewald energy   TEWEN  =    -18409.85296048
  -Hartree energ DENC   =     -5833.43734434
  -exchange      EXHF   =         0.00000000
  -V(xc)+E(xc)   XCENC  =       658.40667920
  PAW double counting   =     20095.06516302   -20819.09463550
  entropy T*S    EENTRO =         0.00619830
  eigenvalues    EBANDS =     -1248.67455277
  atomic energy  EATOM  =     24304.10294433
  ---------------------------------------------------
  free energy    TOTEN  =      -103.54520038 eV

  energy without entropy =     -103.55139868  energy(sigma->0) =     -103.54726648


--------------------------------------------------------------------------------------------------------




--------------------------------------- Iteration      1(   4)  ---------------------------------------


    TRIAL :  cpu time      6.1529: real time      6.1955
    CORREC:  cpu time      0.0024: real time      0.0024
    --------------------------------------------
      LOOP:  cpu time      6.1778: real time      6.2206

 eigenvalue-minimisations  : 45600
 total energy-change (2. order) :-0.1536514E+01  (-0.1536226E+01)
 number of electron     156.0000000 magnetization       8.1650000
 augmentation part      156.0000000 magnetization       8.1650000

 Free energy of the ion-electron system (eV)
  ---------------------------------------------------
  alpha Z        PSCENC =      1149.93330786
  Ewald energy   TEWEN  =    -18409.85296048
  -Hartree energ DENC   =     -5833.43734434
  -exchange      EXHF   =         0.00000000
  -V(xc)+E(xc)   XCENC  =       658.40667920
  PAW double counting   =     20095.06516302   -20819.09463550
  entropy T*S    EENTRO =         0.00618618
  eigenvalues    EBANDS =     -1250.21105459
  atomic energy  EATOM  =     24304.10294433
  ---------------------------------------------------
  free energy    TOTEN  =      -105.08171432 eV

  energy without entropy =     -105.08790049  energy(sigma->0) =     -105.08377638


--------------------------------------------------------------------------------------------------------




--------------------------------------- Iteration      1(   5)  ---------------------------------------


    TRIAL :  cpu time      7.3631: real time      7.4125
    CORREC:  cpu time      0.0025: real time      0.0025
    CHARGE:  cpu time      0.1766: real time      0.1785
    --------------------------------------------
      LOOP:  cpu time      7.5528: real time      7.6157

 eigenvalue-minimisations  : 53216
 total energy-change (2. order) :-0.2835477E-01  (-0.2835373E-01)
 number of electron     155.9999954 magnetization       6.8183346
 augmentation part       79.2475249 magnetization       4.9064834

 Free energy of the ion-electron system (eV)
  ---------------------------------------------------
  alpha Z        PSCENC =      1149.93330786
  Ewald energy   TEWEN  =    -18409.85296048
  -Hartree energ DENC   =     -5833.43734434
  -exchange      EXHF   =         0.00000000
  -V(xc)+E(xc)   XCENC  =       658.40667920
  PAW double counting   =     20095.06516302   -20819.09463550
  entropy T*S    EENTRO =         0.00618602
  eigenvalues    EBANDS =     -1250.23940920
  atomic energy  EATOM  =     24304.10294433
  ---------------------------------------------------
  free energy    TOTEN  =      -105.11006908 eV

  energy without entropy =     -105.11625510  energy(sigma->0) =     -105.11213109


--------------------------------------------------------------------------------------------------------




--------------------------------------- Iteration      1(   6)  ---------------------------------------


    POTLOK:  cpu time      0.0225: real time      0.0227
    SETDIJ:  cpu time      0.0080: real time      0.0080
    TRIAL :  cpu time      2.7727: real time      2.7981
    CORREC:  cpu time      1.0973: real time      1.1066
    CHARGE:  cpu time      0.1673: real time      0.1681
    --------------------------------------------
      LOOP:  cpu time      4.0892: real time      4.1253

 eigenvalue-minimisations  :     0
 total energy-change (2. order) : 0.5218042E+02  (-0.1048545E+02)
 number of electron     155.9999953 magnetization       6.8731434
 augmentation part       79.9935632 magnetization       4.9028545

 Free energy of the ion-electron system (eV)
  ---------------------------------------------------
  alpha Z        PSCENC =      1149.93330786
  Ewald energy   TEWEN  =    -18409.85296048
  -Hartree energ DENC   =     -4753.26646801
  -exchange      EXHF   =         0.00000000
  -V(xc)+E(xc)   XCENC  =       612.71821309
  PAW double counting   =     21540.41221948   -22208.93841656
  entropy T*S    EENTRO =         0.00082018
  eigenvalues    EBANDS =     -2288.04467527
  atomic energy  EATOM  =     24304.10294433
  ---------------------------------------------------
  free energy    TOTEN  =       -52.92964954 eV

  energy without entropy =      -52.93046971  energy(sigma->0) =      -52.92992293


--------------------------------------------------------------------------------------------------------




--------------------------------------- Iteration      1(   7)  ---------------------------------------


    POTLOK:  cpu time      0.0218: real time      0.0220
    SETDIJ:  cpu time      0.0076: real time      0.0076
    TRIAL :  cpu time      2.7668: real time      2.7929
    CORREC:  cpu time      1.0882: real time      1.0994
    CHARGE:  cpu time      0.2848: real time      0.2864
    --------------------------------------------
      LOOP:  cpu time      4.1922: real time      4.2316

 eigenvalue-minimisations  :     0
 total energy-change (2. order) :-0.1363731E+02  (-0.1594597E+02)
 number of electron     155.9999951 magnetization       7.0564897
 augmentation part       82.7408963 magnetization       5.1783036

 Free energy of the ion-electron system (eV)
  ---------------------------------------------------
  alpha Z        PSCENC =      1149.93330786
  Ewald energy   TEWEN  =    -18409.85296048
  -Hartree energ DENC   =     -4851.18371468
  -exchange      EXHF   =         0.00000000
  -V(xc)+E(xc)   XCENC  =       616.83217254
  PAW double counting   =     21601.19243743   -22288.73091778
  entropy T*S    EENTRO =         0.00140845
  eigenvalues    EBANDS =     -2188.86105384
  atomic energy  EATOM  =     24304.10294433
  ---------------------------------------------------
  free energy    TOTEN  =       -66.56696445 eV

  energy without entropy =      -66.56837290  energy(sigma->0) =      -66.56743393


--------------------------------------------------------------------------------------------------------




--------------------------------------- Iteration      1(   8)  ---------------------------------------


    POTLOK:  cpu time      0.0221: real time      0.0223
    SETDIJ:  cpu time      0.0078: real time      0.0078
    TRIAL :  cpu time      2.7004: real time      2.7273
    CORREC:  cpu time      1.0953: real time      1.1067
    CHARGE:  cpu time      0.1599: real time      0.1607
    --------------------------------------------
      LOOP:  cpu time      4.0083: real time      4.0479

 eigenvalue-minimisations  :     0
 total energy-change (2. order) :-0.1700370E+02  (-0.3097180E+01)
 number of electron     155.9999951 magnetization       7.0888456
 augmentation part       83.4876814 magnetization       5.2783166

 Free energy of the ion-electron system (eV)
  ---------------------------------------------------
  alpha Z        PSCENC =      1149.93330786
  Ewald energy   TEWEN  =    -18409.85296048
  -Hartree energ DENC   =     -5236.44431948
  -exchange      EXHF   =         0.00000000
  -V(xc)+E(xc)   XCENC  =       632.73028814
  PAW double counting   =     22070.30514432   -22829.82305703
  entropy T*S    EENTRO =         0.00553610
  eigenvalues    EBANDS =     -1764.52341939
  atomic energy  EATOM  =     24304.10294433
  ---------------------------------------------------
  free energy    TOTEN  =       -83.57066329 eV

  energy without entropy =      -83.57619938  energy(sigma->0) =      -83.57250865


--------------------------------------------------------------------------------------------------------




--------------------------------------- Iteration      1(   9)  ---------------------------------------


    POTLOK:  cpu time      0.0217: real time      0.0220
    SETDIJ:  cpu time      0.0075: real time      0.0075
    TRIAL :  cpu time      2.7135: real time      2.7410
    CORREC:  cpu time      1.0943: real time      1.1057
    CHARGE:  cpu time      0.1602: real time      0.1610
    --------------------------------------------
      LOOP:  cpu time      4.0063: real time      4.0596

 eigenvalue-minimisations  :     0
 total energy-change (2. order) :-0.3411299E+01  (-0.1776032E+01)
 number of electron     155.9999951 magnetization       7.2522820
 augmentation part       83.9818728 magnetization       5.4141768

 Free energy of the ion-electron system (eV)
  ---------------------------------------------------
  alpha Z        PSCENC =      1149.93330786
  Ewald energy   TEWEN  =    -18409.85296048
  -Hartree energ DENC   =     -5338.86914326
  -exchange      EXHF   =         0.00000000
  -V(xc)+E(xc)   XCENC  =       637.13778129
  PAW double counting   =     22245.26829518   -23023.40113682
  entropy T*S    EENTRO =         0.01278318
  eigenvalues    EBANDS =     -1651.30658649
  atomic energy  EATOM  =     24304.10294433
  ---------------------------------------------------
  free energy    TOTEN  =       -86.98196229 eV

  energy without entropy =      -86.99474548  energy(sigma->0) =      -86.98622335


--------------------------------------------------------------------------------------------------------




--------------------------------------- Iteration      1(  10)  ---------------------------------------


    POTLOK:  cpu time      0.0217: real time      0.0219
    SETDIJ:  cpu time      0.0079: real time      0.0079
    TRIAL :  cpu time      2.7932: real time      2.8204
    CORREC:  cpu time      1.0997: real time      1.1109
    CHARGE:  cpu time      0.1597: real time      0.1606
    --------------------------------------------
      LOOP:  cpu time      4.0941: real time      4.1446

 eigenvalue-minimisations  :     0
 total energy-change (2. order) :-0.1582519E+01  (-0.7397965E+00)
 number of electron     155.9999951 magnetization       7.4027458
 augmentation part       84.2315240 magnetization       5.5036322

 Free energy of the ion-electron system (eV)
  ---------------------------------------------------
  alpha Z        PSCENC =      1149.93330786
  Ewald energy   TEWEN  =    -18409.85296048
  -Hartree energ DENC   =     -5402.01771761
  -exchange      EXHF   =         0.00000000
  -V(xc)+E(xc)   XCENC  =       639.97364487
  PAW double counting   =     22357.67212287   -23143.65338573
  entropy T*S    EENTRO =         0.01764296
  eigenvalues    EBANDS =     -1584.73522022
  atomic energy  EATOM  =     24304.10294433
  ---------------------------------------------------
  free energy    TOTEN  =       -88.56448093 eV

  energy without entropy =      -88.58212389  energy(sigma->0) =      -88.57036191


--------------------------------------------------------------------------------------------------------




--------------------------------------- Iteration      1(  11)  ---------------------------------------


    POTLOK:  cpu time      0.0221: real time      0.0223
    SETDIJ:  cpu time      0.0073: real time      0.0073
    TRIAL :  cpu time      2.6595: real time      2.6861
    CORREC:  cpu time      1.0924: real time      1.1034
    CHARGE:  cpu time      0.1574: real time      0.1584
    --------------------------------------------
      LOOP:  cpu time      3.9513: real time      4.0006

 eigenvalue-minimisations  :     0
 total energy-change (2. order) :-0.8548201E+00  (-0.6998261E+00)
 number of electron     155.9999952 magnetization       7.5181665
 augmentation part       84.3746895 magnetization       5.5752551

 Free energy of the ion-electron system (eV)
  ---------------------------------------------------
  alpha Z        PSCENC =      1149.93330786
  Ewald energy   TEWEN  =    -18409.85296048
  -Hartree energ DENC   =     -5431.91304675
  -exchange      EXHF   =         0.00000000
  -V(xc)+E(xc)   XCENC  =       641.34668657
  PAW double counting   =     22411.90746479   -23199.63495420
  entropy T*S    EENTRO =         0.02078780
  eigenvalues    EBANDS =     -1555.32638612
  atomic energy  EATOM  =     24304.10294433
  ---------------------------------------------------
  free energy    TOTEN  =       -89.41930104 eV

  energy without entropy =      -89.44008884  energy(sigma->0) =      -89.42623030


--------------------------------------------------------------------------------------------------------




--------------------------------------- Iteration      1(  12)  ---------------------------------------


    POTLOK:  cpu time      0.0218: real time      0.0220
    SETDIJ:  cpu time      0.0075: real time      0.0075
    TRIAL :  cpu time      2.7004: real time      2.7277
    CORREC:  cpu time      1.2127: real time      1.2247
    CHARGE:  cpu time      0.1589: real time      0.1597
    --------------------------------------------
      LOOP:  cpu time      4.1117: real time      4.1641

 eigenvalue-minimisations  :     0
 total energy-change (2. order) :-0.7901924E+00  (-0.1142003E+01)
 number of electron     155.9999952 magnetization       7.5799121
 augmentation part       84.5577322 magnetization       5.6541111

 Free energy of the ion-electron system (eV)
  ---------------------------------------------------
  alpha Z        PSCENC =      1149.93330786
  Ewald energy   TEWEN  =    -18409.85296048
  -Hartree energ DENC   =     -5444.82259673
  -exchange      EXHF   =         0.00000000
  -V(xc)+E(xc)   XCENC  =       642.03933134
  PAW double counting   =     22431.54013926   -23216.58757877
  entropy T*S    EENTRO =         0.02750941
  eigenvalues    EBANDS =     -1546.58286804
  atomic energy  EATOM  =     24304.10294433
  ---------------------------------------------------
  free energy    TOTEN  =       -90.20949343 eV

  energy without entropy =      -90.23700283  energy(sigma->0) =      -90.21866323


--------------------------------------------------------------------------------------------------------




--------------------------------------- Iteration      1(  13)  ---------------------------------------


    POTLOK:  cpu time      0.0215: real time      0.0217
    SETDIJ:  cpu time      0.0079: real time      0.0080
    TRIAL :  cpu time      2.7051: real time      2.7324
    CORREC:  cpu time      1.0922: real time      1.1035
    CHARGE:  cpu time      0.1552: real time      0.1561
    --------------------------------------------
      LOOP:  cpu time      3.9917: real time      4.0443

 eigenvalue-minimisations  :     0
 total energy-change (2. order) :-0.1367993E+01  (-0.3078233E+00)
 number of electron     155.9999952 magnetization       7.5545199
 augmentation part       84.5945063 magnetization       5.6606065

 Free energy of the ion-electron system (eV)
  ---------------------------------------------------
  alpha Z        PSCENC =      1149.93330786
  Ewald energy   TEWEN  =    -18409.85296048
  -Hartree energ DENC   =     -5454.38003806
  -exchange      EXHF   =         0.00000000
  -V(xc)+E(xc)   XCENC  =       642.84841205
  PAW double counting   =     22451.02467331   -23227.59842116
  entropy T*S    EENTRO =         0.02970755
  eigenvalues    EBANDS =     -1547.68291395
  atomic energy  EATOM  =     24304.10294433
  ---------------------------------------------------
  free energy    TOTEN  =       -91.57748670 eV

  energy without entropy =      -91.60719425  energy(sigma->0) =      -91.58738921


--------------------------------------------------------------------------------------------------------




--------------------------------------- Iteration      1(  14)  ---------------------------------------


    POTLOK:  cpu time      0.0218: real time      0.0220
    SETDIJ:  cpu time      0.0078: real time      0.0079
    TRIAL :  cpu time      2.6964: real time      2.7230
    CORREC:  cpu time      1.1713: real time      1.1837
    CHARGE:  cpu time      0.1536: real time      0.1545
    --------------------------------------------
      LOOP:  cpu time      4.0740: real time      4.1143

 eigenvalue-minimisations  :     0
 total energy-change (2. order) :-0.4212457E+00  (-0.1668736E+00)
 number of electron     155.9999952 magnetization       7.5367141
 augmentation part       84.5997273 magnetization       5.6661296

 Free energy of the ion-electron system (eV)
  ---------------------------------------------------
  alpha Z        PSCENC =      1149.93330786
  Ewald energy   TEWEN  =    -18409.85296048
  -Hartree energ DENC   =     -5455.20279797
  -exchange      EXHF   =         0.00000000
  -V(xc)+E(xc)   XCENC  =       643.02084855
  PAW double counting   =     22454.70037841   -23228.51950779
  entropy T*S    EENTRO =         0.02869536
  eigenvalues    EBANDS =     -1550.21065283
  atomic energy  EATOM  =     24304.10294433
  ---------------------------------------------------
  free energy    TOTEN  =       -91.99873237 eV

  energy without entropy =      -92.02742772  energy(sigma->0) =      -92.00829749


--------------------------------------------------------------------------------------------------------




--------------------------------------- Iteration      1(  15)  ---------------------------------------


    POTLOK:  cpu time      0.0219: real time      0.0221
    SETDIJ:  cpu time      0.0066: real time      0.0067
    TRIAL :  cpu time      2.8152: real time      2.8425
    CORREC:  cpu time      1.0967: real time      1.1081
    CHARGE:  cpu time      0.1558: real time      0.1567
    --------------------------------------------
      LOOP:  cpu time      4.1068: real time      4.1584

 eigenvalue-minimisations  :     0
 total energy-change (2. order) :-0.1520571E+00  (-0.1962087E+00)
 number of electron     155.9999952 magnetization       7.6124818
 augmentation part       84.5987230 magnetization       5.7267723

 Free energy of the ion-electron system (eV)
  ---------------------------------------------------
  alpha Z        PSCENC =      1149.93330786
  Ewald energy   TEWEN  =    -18409.85296048
  -Hartree energ DENC   =     -5454.83668085
  -exchange      EXHF   =         0.00000000
  -V(xc)+E(xc)   XCENC  =       643.07185670
  PAW double counting   =     22451.32399151   -23223.13817155
  entropy T*S    EENTRO =         0.02521997
  eigenvalues    EBANDS =     -1552.78377235
  atomic energy  EATOM  =     24304.10294433
  ---------------------------------------------------
  free energy    TOTEN  =       -92.15078947 eV

  energy without entropy =      -92.17600944  energy(sigma->0) =      -92.15919613


--------------------------------------------------------------------------------------------------------




--------------------------------------- Iteration      1(  16)  ---------------------------------------


    POTLOK:  cpu time      0.0211: real time      0.0214
    SETDIJ:  cpu time      0.0082: real time      0.0082
    TRIAL :  cpu time      2.6963: real time      2.7247
    CORREC:  cpu time      1.0930: real time      1.1046
    CHARGE:  cpu time      0.1560: real time      0.1603
    --------------------------------------------
      LOOP:  cpu time      3.9866: real time      4.0424

 eigenvalue-minimisations  :     0
 total energy-change (2. order) :-0.1861773E+00  (-0.2387647E+00)
 number of electron     155.9999952 magnetization       7.7561160
 augmentation part       84.6033455 magnetization       5.8179787

 Free energy of the ion-electron system (eV)
  ---------------------------------------------------
  alpha Z        PSCENC =      1149.93330786
  Ewald energy   TEWEN  =    -18409.85296048
  -Hartree energ DENC   =     -5456.02121310
  -exchange      EXHF   =         0.00000000
  -V(xc)+E(xc)   XCENC  =       643.18673747
  PAW double counting   =     22438.96223895   -23205.91907650
  entropy T*S    EENTRO =         0.02422190
  eigenvalues    EBANDS =     -1556.75416524
  atomic energy  EATOM  =     24304.10294433
  ---------------------------------------------------
  free energy    TOTEN  =       -92.33696673 eV

  energy without entropy =      -92.36118863  energy(sigma->0) =      -92.34504069


--------------------------------------------------------------------------------------------------------




--------------------------------------- Iteration      1(  17)  ---------------------------------------


    POTLOK:  cpu time      0.0230: real time      0.0232
    SETDIJ:  cpu time      0.0083: real time      0.0084
    TRIAL :  cpu time      9.4631: real time      9.5312
    CORREC:  cpu time      1.2481: real time      1.2627
    CHARGE:  cpu time      0.1508: real time      0.1516
    --------------------------------------------
      LOOP:  cpu time     10.9146: real time     10.9988

 eigenvalue-minimisations  :     0
 total energy-change (2. order) :-0.2605116E+00  (-0.1708835E+00)
 number of electron     155.9999952 magnetization       7.8529877
[...]
     61       9.2361      1.00000
     62       9.2638      1.00000
     63       9.3510      1.00000
     64       9.4170      1.00000
     65       9.4723      1.00000
     66       9.5577      1.00000
     67       9.6252      1.00000
     68       9.7075      1.00000
     69       9.7637      1.00000
     70       9.9863      1.00028
     71      10.0367      1.00095
     72      10.1167      1.00491
     73      10.1646      1.01077
     74      10.2332      1.02498
     75      10.2426      1.02711
     76      10.4770      0.77081
     77      10.8144     -0.03358
     78      10.8299     -0.03087
     79      10.9374     -0.00906
     80      10.9525     -0.00711
     81      10.9661     -0.00563
     82      11.2196     -0.00000
     83      11.4705     -0.00000
     84      11.4881     -0.00000
     85      11.6058     -0.00000
     86      11.6101     -0.00000
     87      11.7399     -0.00000
     88      12.1330     -0.00000
     89      12.2449     -0.00000
     90      12.3322     -0.00000
     91      12.3982     -0.00000
     92      12.5005     -0.00000
     93      12.8460     -0.00000
     94      12.8782     -0.00000
     95      13.0755     -0.00000
     96      13.3818     -0.00000
     97      13.5276     -0.00000
     98      13.5371     -0.00000
     99      14.0533     -0.00000
    100      16.1364      0.00000
    101      18.1744      0.00000
    102      18.2097      0.00000
    103      18.2801      0.00000
    104      19.1486      0.00000
    105      19.3073      0.00000
    106      19.8409      0.00000
    107      20.0186      0.00000
    108      20.4047      0.00000
    109      20.5663      0.00000
    110      20.9673      0.00000
    111      21.0418      0.00000
    112      25.3434      0.00000
    113      25.4699      0.00000
    114      25.8754      0.00000
    115      25.9210      0.00000
    116      26.2155      0.00000
    117      26.3682      0.00000
    118      27.1661      0.00000
    119      27.3077      0.00000
    120      28.2859      0.00000
    121      28.3243      0.00000
    122      28.3552      0.00000
    123      28.8561      0.00000
    124      29.7398      0.00000
    125      30.0133      0.00000
    126      30.2092      0.00000
    127      30.4254      0.00000
    128      31.0826      0.00000


--------------------------------------------------------------------------------------------------------


 soft charge-density along one line, spin component           1
         0         1         2         3         4         5         6         7         8         9
 total charge-density along one line
 
 soft charge-density along one line, spin component           2
         0         1         2         3         4         5         6         7         8         9
 total charge-density along one line
 
 pseudopotential strength for first ion, spin component:           1
-42.496  -0.000  -0.000   6.576   0.000   0.000  -0.000   0.000
 -0.000 -42.533  -0.000   0.000   6.590   0.000   0.000   0.000
 -0.000  -0.000 -42.465   0.000   0.000   6.563   0.000   0.000
  6.576   0.000   0.000   5.911   0.000   0.000   0.000  -0.000
  0.000   6.590   0.000   0.000   5.906   0.000  -0.000  -0.000
  0.000   0.000   6.563   0.000   0.000   5.913  -0.000  -0.000
 -0.000   0.000   0.000   0.000  -0.000  -0.000  -0.105  -0.000
  0.000   0.000   0.000  -0.000  -0.000  -0.000  -0.000  -0.102
 -0.000   0.000   0.000   0.000   0.001  -0.000   0.000  -0.000
  0.000  -0.000  -0.008  -0.000   0.000   0.006  -0.000  -0.000
 -0.000  -0.004   0.000   0.000   0.003   0.000   0.000   0.000
 -0.000   0.000   0.000   0.000  -0.000  -0.000  -0.651  -0.000
  0.000   0.000   0.000   0.000  -0.000  -0.000  -0.000  -0.647
 -0.000   0.000   0.000   0.000   0.001  -0.000   0.000  -0.000
  0.000  -0.000  -0.008  -0.000   0.000   0.006  -0.000  -0.000
 -0.000  -0.004  -0.000   0.000   0.003   0.000   0.000   0.000
 -0.000   0.003   0.000  -0.000   0.001   0.000   0.000   0.000
 -0.000   0.007   0.000  -0.000   0.003   0.000   0.000   0.000
 pseudopotential strength for first ion, spin component:           2
-44.466  -0.000  -0.000   7.407   0.000   0.000  -0.000   0.004
 -0.000 -44.538  -0.000   0.000   7.434   0.000   0.000   0.000
 -0.000  -0.000 -44.370   0.000   0.000   7.367   0.000   0.000
  7.407   0.000   0.000   5.679   0.000   0.000  -0.000  -0.003
  0.000   7.434   0.000   0.000   5.672   0.000  -0.000  -0.000
  0.000   0.000   7.367   0.000   0.000   5.686  -0.000  -0.000
 -0.000   0.000   0.000  -0.000  -0.000  -0.000  -1.604  -0.000
  0.004   0.000   0.000  -0.003  -0.000  -0.000  -0.000  -1.774
 -0.000   0.013   0.000   0.000  -0.006   0.000   0.000  -0.000
  0.000   0.000   0.023  -0.000   0.000  -0.010  -0.000  -0.000
 -0.000   0.009  -0.000   0.000  -0.004  -0.000   0.000   0.000
 -0.000   0.000   0.000  -0.000  -0.000  -0.000  -2.125  -0.000
  0.004   0.000   0.000  -0.003  -0.000  -0.000  -0.000  -2.293
 -0.000   0.013  -0.000   0.000  -0.006   0.000   0.000  -0.000
  0.000  -0.000   0.022  -0.000  -0.000  -0.010  -0.000  -0.000
 -0.000   0.009   0.000   0.000  -0.004   0.000   0.000   0.000
 -0.000  -0.005   0.000  -0.000   0.003  -0.000   0.000   0.000
 -0.000  -0.012   0.000  -0.000   0.008  -0.000   0.000   0.000
 total augmentation occupancy for first ion, spin component:           1
  1.992  -0.000   0.000  -0.026  -0.000   0.000   0.000  -0.006   0.000   0.000   0.000   0.000   0.006   0.000   0.000   0.000
 -0.000   1.992  -0.000   0.000  -0.027   0.000   0.000  -0.000  -0.004   0.000   0.002   0.000   0.000   0.004   0.000  -0.002
  0.000  -0.000   1.992   0.000   0.000  -0.026   0.000  -0.000   0.000  -0.001   0.000   0.000   0.000   0.000   0.002   0.000
 -0.026   0.000   0.000   0.199   0.000   0.000   0.000  -0.016   0.000   0.000   0.000   0.000   0.021  -0.000   0.000   0.000
 -0.000  -0.027   0.000   0.000   0.200   0.000   0.000  -0.000  -0.010   0.000   0.015   0.000  -0.000   0.004   0.000  -0.025
  0.000   0.000  -0.026   0.000   0.000   0.178   0.000  -0.000   0.000   0.010   0.000  -0.000   0.000   0.000  -0.028   0.000
  0.000   0.000   0.000   0.000   0.000   0.000   2.637  -0.000   0.000   0.000  -0.000  -1.487  -0.000  -0.000   0.000   0.000
 -0.006  -0.000  -0.000  -0.016  -0.000  -0.000  -0.000   2.914   0.000   0.000   0.000  -0.000  -2.094   0.000   0.000  -0.000
  0.000  -0.004   0.000   0.000  -0.010   0.000   0.000   0.000   3.261   0.000   0.225   0.000  -0.000  -1.930   0.000  -0.118
  0.000   0.000  -0.001   0.000   0.000   0.010   0.000   0.000   0.000   2.535   0.000   0.000   0.000   0.000  -1.426   0.000
  0.000   0.002   0.000   0.000   0.015   0.000  -0.000   0.000   0.225   0.000   2.997   0.000   0.000  -0.119  -0.000  -1.782
  0.000   0.000   0.000   0.000   0.000  -0.000  -1.487  -0.000   0.000   0.000   0.000   1.763  -0.000   0.000   0.000   0.000
  0.006   0.000   0.000   0.021  -0.000   0.000  -0.000  -2.094  -0.000   0.000   0.000  -0.000   2.515   0.000   0.000   0.000
  0.000   0.004   0.000  -0.000   0.004   0.000  -0.000   0.000  -1.930   0.000  -0.119   0.000   0.000   1.917   0.000   0.041
  0.000   0.000   0.002   0.000   0.000  -0.028   0.000   0.000   0.000  -1.426  -0.000   0.000   0.000   0.000   1.699   0.000
  0.000  -0.002   0.000   0.000  -0.025   0.000   0.000  -0.000  -0.118   0.000  -1.782   0.000   0.000   0.041   0.000   1.857
  0.000  -0.001   0.000  -0.000   0.002   0.000   0.000   0.000  -0.114   0.000   0.196   0.000   0.000   0.080   0.000  -0.152
  0.000   0.001  -0.000   0.000  -0.000   0.000   0.000   0.000   0.013   0.000  -0.012  -0.000   0.000  -0.007   0.000   0.009
 total augmentation occupancy for first ion, spin component:           2
  0.002   0.000   0.000   0.008   0.000   0.000   0.000   0.002   0.000   0.000   0.000   0.000  -0.002   0.000   0.000   0.000
  0.000   0.002   0.000   0.000   0.007  -0.000   0.000   0.000   0.005   0.000   0.004  -0.000   0.000  -0.005   0.000  -0.005
  0.000   0.000   0.002   0.000   0.000   0.008   0.000  -0.000   0.000   0.011   0.000  -0.000   0.000   0.000  -0.012   0.000
  0.008   0.000   0.000  -0.007   0.000   0.000   0.000   0.018   0.000  -0.000  -0.000   0.000  -0.016   0.000   0.000  -0.000
  0.000   0.007   0.000   0.000  -0.002  -0.000   0.000   0.000  -0.009   0.000  -0.040   0.000   0.000  -0.007   0.000   0.017
  0.000  -0.000   0.008   0.000  -0.000  -0.004   0.000   0.000   0.000  -0.070  -0.000  -0.000   0.000   0.000   0.018  -0.000
  0.000   0.000   0.000   0.000   0.000   0.000  -1.863  -0.000   0.000   0.000   0.000   0.821   0.000   0.000   0.000   0.000
  0.002   0.000  -0.000   0.018   0.000   0.000  -0.000  -1.869  -0.000   0.000   0.000   0.000   0.617  -0.000   0.000   0.000
  0.000   0.005   0.000   0.000  -0.009   0.000   0.000  -0.000  -2.400   0.000  -0.060   0.000   0.000   1.039   0.000   0.065
  0.000   0.000   0.011  -0.000   0.000  -0.070   0.000   0.000   0.000  -1.685   0.000   0.000   0.000   0.000   0.588   0.000
  0.000   0.004   0.000  -0.000  -0.040  -0.000   0.000   0.000  -0.060   0.000  -2.213   0.000  -0.000   0.065   0.000   0.836
  0.000  -0.000  -0.000   0.000   0.000  -0.000   0.821   0.000   0.000   0.000   0.000  -0.186  -0.000   0.000   0.000   0.000
 -0.002   0.000   0.000  -0.016   0.000   0.000   0.000   0.617   0.000   0.000  -0.000  -0.000   0.068   0.000   0.000   0.000
  0.000  -0.005   0.000   0.000  -0.007   0.000   0.000  -0.000   1.039   0.000   0.065   0.000   0.000  -0.322   0.000  -0.071
  0.000   0.000  -0.012   0.000   0.000   0.018   0.000   0.000   0.000   0.588   0.000   0.000   0.000   0.000   0.032  -0.000
  0.000  -0.005   0.000  -0.000   0.017  -0.000   0.000   0.000   0.065   0.000   0.836   0.000   0.000  -0.071  -0.000  -0.113
  0.000  -0.002  -0.000   0.000  -0.017   0.000   0.000   0.000  -0.011   0.000  -0.038   0.000   0.000  -0.006   0.000   0.033
  0.000   0.000  -0.000   0.000  -0.000   0.000   0.000   0.000  -0.007   0.000   0.004   0.000   0.000   0.002   0.000  -0.001


------------------------ aborting loop because EDIFF is reached ----------------------------------------





 total charge

# of ion       s       p       d       tot
------------------------------------------
    1        0.365   6.360   6.067  12.792
    2        0.361   6.352   6.073  12.786
    3        0.361   6.354   6.053  12.768
    4        0.368   6.362   6.054  12.784
    5        0.366   6.360   6.051  12.777
    6        0.361   6.356   6.054  12.771
    7        0.365   6.360   6.067  12.792
    8        0.361   6.352   6.073  12.786
    9        0.361   6.354   6.053  12.768
   10        0.797   0.758   8.047   9.602
   11        0.799   0.751   8.053   9.603
   12        0.785   0.764   8.051   9.599
--------------------------------------------------
tot          5.651  59.482  78.697 143.830



 magnetization (x)

# of ion       s       p       d       tot
------------------------------------------
    1       -0.012  -0.006  -2.303  -2.321
    2        0.001  -0.012   2.516   2.505
    3        0.008   0.002   2.427   2.438
    4       -0.016  -0.022  -2.347  -2.385
    5        0.014   0.022   2.388   2.423
    6        0.001  -0.014   2.624   2.611
    7       -0.012  -0.006  -2.303  -2.321
    8        0.001  -0.012   2.516   2.505
    9        0.008   0.002   2.427   2.438
   10        0.007   0.012  -0.062  -0.043
   11       -0.009  -0.018   0.094   0.066
   12       -0.038  -0.096   0.390   0.256
--------------------------------------------------
tot         -0.046  -0.148   8.366   8.171
 
    FORLOC:  cpu time      0.0010: real time      0.0010
    FORNL :  cpu time      0.6923: real time      0.6961
    STRESS:  cpu time      4.2413: real time      4.2757
    FORCOR:  cpu time      0.0207: real time      0.0209
    OFIELD:  cpu time      0.0001: real time      0.0001

  FORCE on cell =-STRESS in cart. coord.  units (eV):
  Direction    XX          YY          ZZ          XY          YZ          ZX
  --------------------------------------------------------------------------------------
  Alpha Z  1149.93331  1149.93331  1149.93331
  Ewald   -6130.53214 -6130.53214 -6148.81108     0.00000    -0.00000    -0.00000
  Hartree  1835.61890  1835.61890  1818.87651    -0.00000    -0.00000    -0.00000
  E(xc)    -944.90672  -944.90672  -944.85427    -0.00000     0.00000     0.00000
  Local    1161.89707  1161.89707  1202.51629     0.00000     0.00000    -0.00000
  n-local  -204.89593  -218.56763  -211.57255    15.27081     0.13792     0.22748
  augment  1438.55920  1438.55920  1434.69109    -0.00000     0.00000     0.00000
  Kinetic  1716.25437  1698.24225  1705.30888     3.74956     0.05249     0.07178
  Fock        0.00000     0.00000     0.00000     0.00000     0.00000     0.00000
  -------------------------------------------------------------------------------------
  Total       6.08614     6.08614     6.08817     0.00000     0.00000     0.00000
  in kB      65.88570    65.88570    65.90760     0.00000     0.00000     0.00000
  external pressure =       65.89 kB  Pullay stress =        0.00 kB


 VOLUME and BASIS-vectors are now :
 -----------------------------------------------------------------------------
  energy-cutoff  :      520.00
  volume of cell :      148.00
      direct lattice vectors                 reciprocal lattice vectors
     3.654463374  0.000000000  0.000000000     0.273637987  0.000000000  0.000000000
     0.000000000  3.654463374  0.000000000     0.000000000  0.273637987  0.000000000
     0.000000000  0.000000000 11.081906669     0.000000000  0.000000000  0.090237179

  length of vectors
     3.654463374  3.654463374 11.081906669     0.273637987  0.273637987  0.090237179


 FORCES acting on ions:
    Electron-Ion                     Ewald-Force                    Non-Local-Force
 -----------------------------------------------------------------------------------------------
   -.485E-13 0.936E-12 -.138E+01   -.855E-14 0.113E-13 0.456E+00   -.412E-18 -.103E-17 0.919E+00
   -.496E-13 0.188E-11 -.260E+02   0.753E-14 0.403E-14 0.264E+02   -.690E-19 -.103E-18 -.410E+00
   -.477E-13 0.145E-11 0.189E+02   0.172E-13 -.211E-14 -.202E+02   -.265E-18 0.246E-18 0.121E+01
   0.107E-11 0.751E-11 0.627E+02   0.316E-14 0.856E-14 -.605E+02   -.149E-17 -.174E-18 -.225E+01
   0.108E-11 0.675E-11 0.133E+02   -.136E-13 0.711E-13 -.115E+02   0.111E-19 0.515E-18 -.179E+01
   0.108E-11 -.422E-11 -.415E+02   -.664E-15 0.740E-15 0.416E+02   -.133E-18 0.260E-18 -.143E+00
   0.109E-11 -.358E-12 -.138E+01   0.212E-13 -.178E-13 0.456E+00   0.477E-18 -.135E-18 0.919E+00
   0.107E-11 -.124E-12 -.260E+02   -.814E-14 0.107E-13 0.264E+02   0.422E-18 -.147E-20 -.410E+00
   0.106E-11 0.117E-13 0.189E+02   -.210E-13 0.293E-13 -.202E+02   -.787E-18 -.341E-18 0.121E+01
   -.264E-13 -.593E-13 0.181E+02   -.249E-14 -.136E-14 -.183E+02   0.209E-18 -.402E-18 0.229E+00
   -.256E-13 0.467E-13 -.182E+02   0.526E-14 -.625E-13 0.182E+02   0.497E-18 0.903E-18 0.121E-01
   -.230E-13 -.447E-13 -.173E+02   -.395E-14 -.969E-14 0.171E+02   -.216E-18 0.297E-18 0.199E+00
 -----------------------------------------------------------------------------------------------
   0.627E-11 0.139E-10 0.304E+00   -.404E-14 0.424E-13 -.167E-12   -.176E-17 0.382E-19 -.303E+00
 
 
 POSITION                                       TOTAL-FORCE (eV/Angst)
 -----------------------------------------------------------------------------------
      0.00000      1.82723      1.84645         0.000000     -0.000000     -0.006863
      0.00000      1.82723      5.53199         0.000000     -0.000000     -0.002358
      0.00000      1.82723      9.24463         0.000000     -0.000000     -0.003582
      1.82723      1.82723      0.04661        -0.000000     -0.000000      0.007406
      1.82723      1.82723      3.72179        -0.000000      0.000000      0.001114
      1.82723      1.82723      7.36459        -0.000000      0.000000      0.005314
      1.82723      0.00000      1.84645         0.000000     -0.000000     -0.006863
      1.82723      0.00000      5.53199         0.000000     -0.000000     -0.002358
      1.82723      0.00000      9.24463         0.000000     -0.000000     -0.003582
      0.00000      0.00000     11.06764         0.000000     -0.000000      0.009816
      0.00000      0.00000      3.65669         0.000000     -0.000000     -0.004870
      0.00000      0.00000      7.38797         0.000000     -0.000000      0.006825
 -----------------------------------------------------------------------------------
    total drift:                                0.000000      0.000000      0.001291


--------------------------------------------------------------------------------------------------------



  FREE ENERGIE OF THE ION-ELECTRON SYSTEM (eV)
  ---------------------------------------------------
  free  energy   TOTEN  =       -93.24050795 eV

  energy  without entropy=      -93.25109957  energy(sigma->0) =      -93.24403849
 


--------------------------------------------------------------------------------------------------------


    POTLOK:  cpu time      0.0353: real time      0.0356


--------------------------------------------------------------------------------------------------------




--------------------------------------------------------------------------------------------------------


  
 reached required accuracy - stopping structural energy minimisation
     LOOP+:  cpu time    270.5170: real time    273.7377
    4ORBIT:  cpu time      0.0000: real time      0.0000



 total charge

# of ion       s       p       d       tot
------------------------------------------
    1        0.365   6.360   6.067  12.792
    2        0.361   6.352   6.073  12.786
    3        0.361   6.354   6.053  12.768
    4        0.368   6.362   6.054  12.784
    5        0.366   6.360   6.051  12.777
    6        0.361   6.356   6.054  12.771
    7        0.365   6.360   6.067  12.792
    8        0.361   6.352   6.073  12.786
    9        0.361   6.354   6.053  12.768
   10        0.797   0.758   8.047   9.602
   11        0.799   0.751   8.053   9.603
   12        0.785   0.764   8.051   9.599
--------------------------------------------------
tot          5.651  59.482  78.697 143.830



 magnetization (x)

# of ion       s       p       d       tot
------------------------------------------
    1       -0.012  -0.006  -2.303  -2.321
    2        0.001  -0.012   2.516   2.505
    3        0.008   0.002   2.427   2.438
    4       -0.016  -0.022  -2.347  -2.385
    5        0.014   0.022   2.388   2.423
    6        0.001  -0.014   2.624   2.611
    7       -0.012  -0.006  -2.303  -2.321
    8        0.001  -0.012   2.516   2.505
    9        0.008   0.002   2.427   2.438
   10        0.007   0.012  -0.062  -0.043
   11       -0.009  -0.018   0.094   0.066
   12       -0.038  -0.096   0.390   0.256
--------------------------------------------------
tot         -0.046  -0.148   8.366   8.171
 

 total amount of memory used by VASP MPI-rank0   273670. kBytes
=======================================================================

   base      :      30000. kBytes
   nonl-proj :      98316. kBytes
   fftplans  :        888. kBytes
   grid      :       6813. kBytes
   one-center:        373. kBytes
   wavefun   :     137280. kBytes
 
  
  
 General timing and accounting informations for this job:
 ========================================================
  
                  Total CPU time used (sec):      291.023
                            User time (sec):      282.305
                          System time (sec):        8.717
                         Elapsed time (sec):      299.277
  
                   Maximum memory used (kb):     1219516.
                   Average memory used (kb):          N/A
  
                          Minor page faults:       202360
                          Major page faults:          914
                 Voluntary context switches:        12869
