       N       E                     dE             d eps       ncg     rms          ort
DAV:   1     0.173478468867E+04    0.17348E+04   -0.93600E+04  8064   0.254E+03
DAV:   2     0.775732190101E+01   -0.17270E+04   -0.16964E+04  8064   0.606E+02
DAV:   3    -0.102829983191E+03   -0.11059E+03   -0.10943E+03  8064   0.160E+02
DAV:   4    -0.105141824407E+03   -0.23118E+01   -0.23083E+01  8064   0.248E+01
DAV:   5    -0.105194433450E+03   -0.52609E-01   -0.52592E-01  8064   0.367E+00
SDA:   6    -0.552504675943E+02    0.49944E+02   -0.52592E-01  8064   0.391E+03 0.000E+00
CGA:   7    -0.829677928680E+02   -0.27717E+02   -0.25276E+02  8064   0.139E+03 0.398E+02
CGA:   8    -0.875709188295E+02   -0.46031E+01   -0.44101E+01  8064   0.471E+02 0.113E+02
CGA:   9    -0.902804673711E+02   -0.27095E+01   -0.28032E+01  8064   0.135E+02-0.890E+00
CGA:  10    -0.918148851229E+02   -0.15344E+01   -0.15321E+01  8064   0.815E+01 0.746E-02
CGA:  11    -0.920665144771E+02   -0.25163E+00   -0.25368E+00  8064   0.428E+01-0.459E-01
CGA:  12    -0.924468246778E+02   -0.38031E+00   -0.38509E+00  8064   0.277E+01-0.191E-01
CGA:  13    -0.927590826481E+02   -0.31226E+00   -0.31309E+00  8064   0.386E+01 0.255E-02
CGA:  14    -0.929021564834E+02   -0.14307E+00   -0.15199E+00  8064   0.262E+01-0.199E+00
CGA:  15    -0.930533511647E+02   -0.15119E+00   -0.15378E+00  8064   0.758E+00-0.298E-01
CGA:  16    -0.930955340719E+02   -0.42183E-01   -0.42322E-01  8064   0.121E+01-0.175E-02
CGA:  17    -0.931864538437E+02   -0.90920E-01   -0.90846E-01  8064   0.372E+00-0.124E-02
CGA:  18    -0.932140027153E+02   -0.27549E-01   -0.27906E-01  8064   0.322E+00-0.205E-02
CGA:  19    -0.932272417411E+02   -0.13239E-01   -0.13535E-01  8064   0.235E+00-0.557E-02
CGA:  20    -0.932490514796E+02   -0.21810E-01   -0.21820E-01  8064   0.179E+00 0.106E-03
CGA:  21    -0.932580474213E+02   -0.89959E-02   -0.91170E-02  8064   0.203E+00-0.137E-02
CGA:  22    -0.932712467117E+02   -0.13199E-01   -0.13375E-01  8064   0.403E-01-0.910E-03
CGA:  23    -0.932749759801E+02   -0.37293E-02   -0.37365E-02  8064   0.868E-01 0.832E-04
CGA:  24    -0.932801885620E+02   -0.52126E-02   -0.52656E-02  8064   0.657E-01-0.428E-03
CGA:  25    -0.932852797586E+02   -0.50912E-02   -0.51251E-02  8064   0.403E-01-0.552E-04
CGA:  26    -0.932867413936E+02   -0.14616E-02   -0.14733E-02  8064   0.214E-01-0.321E-03
CGA:  27    -0.932895831673E+02   -0.28418E-02   -0.28440E-02  8064   0.184E-01-0.101E-03
CGA:  28    -0.932906633043E+02   -0.10801E-02   -0.10823E-02  8064   0.265E-01-0.370E-04
CGA:  29    -0.932927692775E+02   -0.21060E-02   -0.21103E-02  8064   0.950E-02 0.327E-06
CGA:  30    -0.932932343467E+02   -0.46507E-03   -0.46482E-03  8064   0.698E-02-0.111E-04
CGA:  31    -0.932936513297E+02   -0.41698E-03   -0.41587E-03  8064   0.517E-02-0.179E-04
CGA:  32    -0.932942690540E+02   -0.61772E-03   -0.61867E-03  8064   0.555E-02-0.667E-04
CGA:  33    -0.932944334737E+02   -0.16442E-03   -0.16242E-03  8064   0.157E-02-0.212E-04
CGA:  34    -0.932946319756E+02   -0.19850E-03   -0.19977E-03  8064   0.126E-02-0.480E-04
CGA:  35    -0.932946893102E+02   -0.57335E-04   -0.56718E-04  8064   0.111E-02-0.779E-05
CGA:  36    -0.932947777159E+02   -0.88406E-04   -0.88299E-04  8064   0.732E-03-0.436E-05
SDA:  37    -0.932948188699E+02   -0.41154E-04   -0.41225E-04  8064   0.581E-03 0.323E-05
CGA:  38    -0.932948337348E+02   -0.14865E-04   -0.14901E-04  8064   0.210E-03 0.262E-05
CGA:  39    -0.932948675136E+02   -0.33779E-04   -0.33338E-04  8064   0.404E-03 0.813E-05
CGA:  40    -0.932948866533E+02   -0.19140E-04   -0.19445E-04  8064   0.236E-03 0.719E-05
CGA:  41    -0.932949007060E+02   -0.14053E-04   -0.14286E-04  8064   0.102E-03 0.782E-05
CGA:  42    -0.932949167729E+02   -0.16067E-04   -0.15476E-04  8064   0.621E-04 0.119E-04
CGA:  43    -0.932949190967E+02   -0.23237E-05   -0.23689E-05  8064   0.400E-04 0.169E-05
CGA:  44    -0.932949233378E+02   -0.42411E-05   -0.42497E-05  8064   0.342E-04 0.183E-06
CGA:  45    -0.932949267994E+02   -0.34616E-05   -0.34683E-05  8064   0.467E-04-0.100E-06
CGA:  46    -0.932949285063E+02   -0.17068E-05   -0.17004E-05  8064   0.163E-04 0.671E-06
CGA:  47    -0.932949301661E+02   -0.16598E-05   -0.16482E-05  8064   0.122E-04 0.205E-05
CGA:  48    -0.932949305351E+02   -0.36905E-06   -0.39259E-06  8064   0.190E-05 0.108E-05
   1 F= -.93294931E+02 E0= -.93297345E+02  d E =-.932949E+02  mag=     2.2224
       N       E                     dE             d eps       ncg     rms          ort
SDA:   1    -0.932939308735E+02    0.99929E-03    0.00000E+00  8064   0.181E-01 0.000E+00
CGA:   2    -0.932942923768E+02   -0.36150E-03   -0.36160E-03  8064   0.249E-02-0.701E-05
CGA:   3    -0.932945809573E+02   -0.28858E-03   -0.28861E-03  8064   0.164E-02-0.117E-05
CGA:   4    -0.932946725714E+02   -0.91614E-04   -0.91621E-04  8064   0.167E-02 0.215E-06
CGA:   5    -0.932947942803E+02   -0.12171E-03   -0.12171E-03  8064   0.125E-02-0.513E-06
CGA:   6    -0.932948851325E+02   -0.90852E-04   -0.90856E-04  8064   0.497E-03 0.928E-07
CGA:   7    -0.932948986911E+02   -0.13559E-04   -0.13570E-04  8064   0.180E-03 0.154E-06
CGA:   8    -0.932949237910E+02   -0.25100E-04   -0.25044E-04  8064   0.664E-04 0.974E-06
CGA:   9    -0.932949274935E+02   -0.37025E-05   -0.37067E-05  8064   0.763E-04 0.165E-06
CGA:  10    -0.932949324007E+02   -0.49072E-05   -0.49072E-05  8064   0.468E-04 0.260E-07
CGA:  11    -0.932949350879E+02   -0.26872E-05   -0.26887E-05  8064   0.343E-04 0.352E-07
CGA:  12    -0.932949363639E+02   -0.12760E-05   -0.12769E-05  8064   0.128E-04 0.381E-07
CGA:  13    -0.932949383915E+02   -0.20276E-05   -0.20457E-05  8064   0.950E-05-0.210E-06
CGA:  14    -0.932949387861E+02   -0.39458E-06   -0.39291E-06  8064   0.686E-05-0.277E-07
   2 F= -.93294939E+02 E0= -.93297365E+02  d E =-.825097E-05  mag=     2.2263
