       N       E                     dE             d eps       ncg     rms          ort
DAV:   1     0.173977517578E+04    0.17398E+04   -0.93557E+04  8064   0.254E+03
DAV:   2     0.874879772405E+01   -0.17310E+04   -0.17001E+04  8064   0.607E+02
DAV:   3    -0.102723996751E+03   -0.11147E+03   -0.11029E+03  8064   0.160E+02
DAV:   4    -0.105068548664E+03   -0.23446E+01   -0.23410E+01  8064   0.249E+01
DAV:   5    -0.105120317490E+03   -0.51769E-01   -0.51758E-01  8064   0.368E+00
SDA:   6    -0.553272557783E+02    0.49793E+02   -0.51758E-01  8064   0.397E+03 0.000E+00
CGA:   7    -0.816844076934E+02   -0.26357E+02   -0.23531E+02  8064   0.170E+03 0.522E+02
CGA:   8    -0.872653538800E+02   -0.55809E+01   -0.49173E+01  8064   0.377E+02 0.346E+02
CGA:   9    -0.903473295380E+02   -0.30820E+01   -0.31003E+01  8064   0.140E+02 0.313E-01
CGA:  10    -0.913978432554E+02   -0.10505E+01   -0.10416E+01  8064   0.187E+02 0.941E-01
CGA:  11    -0.919617183264E+02   -0.56388E+00   -0.46088E+00  8064   0.367E+01 0.432E+01
CGA:  12    -0.922013298006E+02   -0.23961E+00   -0.24555E+00  8064   0.767E+01-0.789E-01
CGA:  13    -0.924769644996E+02   -0.27563E+00   -0.27802E+00  8064   0.411E+01-0.297E-01
CGA:  14    -0.925715462091E+02   -0.94582E-01   -0.97114E-01  8064   0.318E+01-0.903E-01
CGA:  15    -0.927884953631E+02   -0.21695E+00   -0.21572E+00  8064   0.690E+01 0.198E-01
CGA:  16    -0.929091206525E+02   -0.12063E+00   -0.79679E-01  8064   0.339E+01 0.364E+01
CGA:  17    -0.929990287029E+02   -0.89908E-01   -0.95517E-01  8064   0.122E+01-0.176E+00
CGA:  18    -0.930659743611E+02   -0.66946E-01   -0.67706E-01  8064   0.686E+00-0.844E-02
CGA:  19    -0.931554072972E+02   -0.89433E-01   -0.89442E-01  8064   0.366E+00-0.180E-02
CGA:  20    -0.931852305531E+02   -0.29823E-01   -0.30049E-01  8064   0.649E+00-0.680E-03
CGA:  21    -0.932149443644E+02   -0.29714E-01   -0.30541E-01  8064   0.173E+00-0.134E-01
CGA:  22    -0.932348567758E+02   -0.19912E-01   -0.19909E-01  8064   0.205E+00-0.100E-03
CGA:  23    -0.932587744358E+02   -0.23918E-01   -0.23961E-01  8064   0.432E+00 0.434E-02
CGA:  24    -0.932756525432E+02   -0.16878E-01   -0.17004E-01  8064   0.371E-01-0.105E-02
CGA:  25    -0.932801051156E+02   -0.44526E-02   -0.44514E-02  8064   0.780E-01 0.435E-03
CGA:  26    -0.932841859683E+02   -0.40809E-02   -0.41181E-02  8064   0.376E-01 0.781E-04
CGA:  27    -0.932865726469E+02   -0.23867E-02   -0.24096E-02  8064   0.145E-01 0.997E-04
CGA:  28    -0.932876057603E+02   -0.10331E-02   -0.10373E-02  8064   0.294E-01 0.700E-04
CGA:  29    -0.932902304752E+02   -0.26247E-02   -0.26285E-02  8064   0.139E-01 0.140E-03
CGA:  30    -0.932907368799E+02   -0.50640E-03   -0.50945E-03  8064   0.793E-02-0.829E-04
CGA:  31    -0.932919965892E+02   -0.12597E-02   -0.12650E-02  8064   0.115E-01-0.109E-03
CGA:  32    -0.932928278326E+02   -0.83124E-03   -0.82744E-03  8064   0.956E-02-0.141E-03
CGA:  33    -0.932932726506E+02   -0.44482E-03   -0.44070E-03  8064   0.433E-02-0.850E-04
CGA:  34    -0.932937042808E+02   -0.43163E-03   -0.43145E-03  8064   0.320E-02-0.752E-04
CGA:  35    -0.932937936714E+02   -0.89391E-04   -0.88028E-04  8064   0.914E-03-0.182E-04
CGA:  36    -0.932939545520E+02   -0.16088E-03   -0.16486E-03  8064   0.244E-02-0.473E-04
CGA:  37    -0.932940353736E+02   -0.80822E-04   -0.79204E-04  8064   0.317E-03-0.208E-04
CGA:  38    -0.932940601049E+02   -0.24731E-04   -0.24691E-04  8064   0.203E-03-0.700E-06
CGA:  39    -0.932941009705E+02   -0.40866E-04   -0.40103E-04  8064   0.230E-03 0.863E-05
CGA:  40    -0.932941086419E+02   -0.76714E-05   -0.76862E-05  8064   0.137E-03 0.149E-05
CGA:  41    -0.932941284162E+02   -0.19774E-04   -0.19935E-04  8064   0.655E-04-0.273E-05
CGA:  42    -0.932941313606E+02   -0.29444E-05   -0.30288E-05  8064   0.620E-04 0.230E-05
CGA:  43    -0.932941367254E+02   -0.53647E-05   -0.54524E-05  8064   0.393E-04 0.672E-05
CGA:  44    -0.932941394387E+02   -0.27133E-05   -0.28412E-05  8064   0.304E-04 0.450E-05
CGA:  45    -0.932941406767E+02   -0.12380E-05   -0.13451E-05  8064   0.173E-04 0.256E-05
CGA:  46    -0.932941435491E+02   -0.28724E-05   -0.26933E-05  8064   0.583E-05 0.428E-05
SDA:  47    -0.932941437617E+02   -0.21254E-06   -0.23483E-06  8064   0.329E-05 0.952E-06
   1 F= -.93294144E+02 E0= -.93296663E+02  d E =-.932941E+02  mag=     2.2801
       N       E                     dE             d eps       ncg     rms          ort
SDA:   1    -0.932790846058E+02    0.15059E-01    0.00000E+00  8064   0.745E-01 0.000E+00
CGA:   2    -0.932844503240E+02   -0.53657E-02   -0.53663E-02  8064   0.988E-01-0.796E-05
CGA:   3    -0.932882528509E+02   -0.38025E-02   -0.38015E-02  8064   0.258E-01 0.110E-04
CGA:   4    -0.932904176834E+02   -0.21648E-02   -0.21649E-02  8064   0.439E-01-0.128E-05
CGA:   5    -0.932925927079E+02   -0.21750E-02   -0.21754E-02  8064   0.172E-01-0.530E-05
CGA:   6    -0.932938008186E+02   -0.12081E-02   -0.12081E-02  8064   0.304E-02 0.391E-05
CGA:   7    -0.932941031474E+02   -0.30233E-03   -0.30233E-03  8064   0.570E-02-0.700E-06
CGA:   8    -0.932943141741E+02   -0.21103E-03   -0.21102E-03  8064   0.146E-02-0.121E-05
CGA:   9    -0.932943925194E+02   -0.78345E-04   -0.78355E-04  8064   0.650E-03 0.270E-06
CGA:  10    -0.932944249459E+02   -0.32426E-04   -0.32419E-04  8064   0.580E-03-0.283E-06
CGA:  11    -0.932944779816E+02   -0.53036E-04   -0.53042E-04  8064   0.107E-03-0.492E-06
CGA:  12    -0.932944863368E+02   -0.83552E-05   -0.83565E-05  8064   0.215E-03 0.105E-06
CGA:  13    -0.932944975567E+02   -0.11220E-04   -0.11229E-04  8064   0.754E-04 0.323E-06
CGA:  14    -0.932945023965E+02   -0.48398E-05   -0.48405E-05  8064   0.480E-04 0.136E-06
CGA:  15    -0.932945043912E+02   -0.19947E-05   -0.19942E-05  8064   0.246E-04-0.223E-07
CGA:  16    -0.932945077278E+02   -0.33366E-05   -0.33201E-05  8064   0.166E-04 0.265E-06
CGA:  17    -0.932945083584E+02   -0.63052E-06   -0.63240E-06  8064   0.113E-04 0.626E-07
   2 F= -.93294508E+02 E0= -.93297021E+02  d E =-.364597E-03  mag=     2.2715
       N       E                     dE             d eps       ncg     rms          ort
SDA:   1    -0.932124998987E+02    0.82008E-01    0.00000E+00  8064   0.412E+00 0.000E+00
CGA:   2    -0.932404605129E+02   -0.27961E-01   -0.27967E-01  8064   0.483E+00 0.180E-03
CGA:   3    -0.932620553255E+02   -0.21595E-01   -0.21585E-01  8064   0.131E+00 0.727E-04
CGA:   4    -0.932742022905E+02   -0.12147E-01   -0.12146E-01  8064   0.249E+00 0.182E-04
CGA:   5    -0.932843941265E+02   -0.10192E-01   -0.10196E-01  8064   0.939E-01-0.762E-04
CGA:   6    -0.932910708255E+02   -0.66767E-02   -0.66766E-02  8064   0.158E-01-0.515E-05
CGA:   7    -0.932926077129E+02   -0.15369E-02   -0.15367E-02  8064   0.287E-01 0.411E-05
CGA:   8    -0.932938511778E+02   -0.12435E-02   -0.12435E-02  8064   0.623E-02-0.346E-05
CGA:   9    -0.932941636252E+02   -0.31245E-03   -0.31245E-03  8064   0.420E-02 0.383E-06
CGA:  10    -0.932943497743E+02   -0.18615E-03   -0.18615E-03  8064   0.283E-02 0.118E-06
CGA:  11    -0.932946215794E+02   -0.27181E-03   -0.27181E-03  8064   0.596E-03-0.187E-06
CGA:  12    -0.932946679219E+02   -0.46342E-04   -0.46336E-04  8064   0.102E-02 0.899E-06
CGA:  13    -0.932947259030E+02   -0.57981E-04   -0.58014E-04  8064   0.439E-03 0.204E-05
CGA:  14    -0.932947499327E+02   -0.24030E-04   -0.24039E-04  8064   0.334E-03 0.530E-06
CGA:  15    -0.932947629116E+02   -0.12979E-04   -0.12979E-04  8064   0.116E-03-0.606E-07
CGA:  16    -0.932947815020E+02   -0.18590E-04   -0.18580E-04  8064   0.895E-04 0.138E-06
CGA:  17    -0.932947850381E+02   -0.35361E-05   -0.35376E-05  8064   0.570E-04 0.785E-07
CGA:  18    -0.932947893076E+02   -0.42695E-05   -0.42676E-05  8064   0.443E-04 0.554E-06
CGA:  19    -0.932947915441E+02   -0.22365E-05   -0.22443E-05  8064   0.348E-04 0.432E-06
CGA:  20    -0.932947933895E+02   -0.18454E-05   -0.18474E-05  8064   0.130E-04 0.122E-06
CGA:  21    -0.932947952070E+02   -0.18175E-05   -0.18904E-05  8064   0.166E-04-0.933E-06
CGA:  22    -0.932947957179E+02   -0.51089E-06   -0.50099E-06  8064   0.604E-05-0.201E-06
   3 F= -.93294796E+02 E0= -.93297258E+02  d E =-.651956E-03  mag=     2.2453
       N       E                     dE             d eps       ncg     rms          ort
SDA:   1    -0.932913710393E+02    0.34242E-02    0.00000E+00  8064   0.193E-01 0.000E+00
CGA:   2    -0.932922749331E+02   -0.90389E-03   -0.90394E-03  8064   0.211E-01-0.418E-05
CGA:   3    -0.932934449563E+02   -0.11700E-02   -0.11700E-02  8064   0.520E-02 0.103E-06
CGA:   4    -0.932938647372E+02   -0.41978E-03   -0.41979E-03  8064   0.975E-02-0.990E-06
CGA:   5    -0.932944739538E+02   -0.60922E-03   -0.60920E-03  8064   0.278E-02-0.316E-05
CGA:   6    -0.932946391932E+02   -0.16524E-03   -0.16523E-03  8064   0.100E-02-0.362E-06
CGA:   7    -0.932946837941E+02   -0.44601E-04   -0.44592E-04  8064   0.103E-02-0.399E-06
CGA:   8    -0.932947615634E+02   -0.77769E-04   -0.77775E-04  8064   0.241E-03-0.809E-06
CGA:   9    -0.932947751140E+02   -0.13551E-04   -0.13555E-04  8064   0.178E-03 0.507E-06
CGA:  10    -0.932947840534E+02   -0.89394E-05   -0.89446E-05  8064   0.113E-03 0.254E-06
CGA:  11    -0.932947936551E+02   -0.96018E-05   -0.95985E-05  8064   0.709E-04 0.134E-06
CGA:  12    -0.932947956005E+02   -0.19453E-05   -0.19472E-05  8064   0.195E-04 0.483E-07
CGA:  13    -0.932947992303E+02   -0.36298E-05   -0.36125E-05  8064   0.176E-04 0.129E-06
CGA:  14    -0.932947998705E+02   -0.64022E-06   -0.64107E-06  8064   0.894E-05-0.380E-08
   4 F= -.93294800E+02 E0= -.93297263E+02  d E =-.656109E-03  mag=     2.2488
       N       E                     dE             d eps       ncg     rms          ort
SDA:   1    -0.932928368707E+02    0.19624E-02    0.00000E+00  8064   0.229E-01 0.000E+00
CGA:   2    -0.932934082675E+02   -0.57140E-03   -0.57144E-03  8064   0.736E-02 0.318E-06
CGA:   3    -0.932940098653E+02   -0.60160E-03   -0.60159E-03  8064   0.443E-02-0.302E-06
CGA:   4    -0.932942543690E+02   -0.24450E-03   -0.24450E-03  8064   0.373E-02-0.451E-06
CGA:   5    -0.932944671680E+02   -0.21280E-03   -0.21281E-03  8064   0.214E-02 0.593E-06
CGA:   6    -0.932946902874E+02   -0.22312E-03   -0.22323E-03  8064   0.104E-02-0.310E-05
CGA:   7    -0.932947191620E+02   -0.28875E-04   -0.28863E-04  8064   0.372E-03-0.355E-06
CGA:   8    -0.932947503027E+02   -0.31141E-04   -0.31137E-04  8064   0.239E-03 0.205E-06
CGA:   9    -0.932947704222E+02   -0.20119E-04   -0.20119E-04  8064   0.169E-03-0.699E-07
CGA:  10    -0.932947755653E+02   -0.51431E-05   -0.51502E-05  8064   0.376E-04 0.157E-06
CGA:  11    -0.932947801077E+02   -0.45424E-05   -0.45214E-05  8064   0.739E-04 0.368E-06
CGA:  12    -0.932947824825E+02   -0.23748E-05   -0.23796E-05  8064   0.117E-04 0.128E-06
CGA:  13    -0.932947837013E+02   -0.12189E-05   -0.12214E-05  8064   0.120E-04-0.497E-07
CGA:  14    -0.932947844664E+02   -0.76508E-06   -0.76585E-06  8064   0.132E-04-0.383E-07
   5 F= -.93294784E+02 E0= -.93297255E+02  d E =-.640705E-03  mag=     2.2526
       N       E                     dE             d eps       ncg     rms          ort
SDA:   1    -0.932871755278E+02    0.76082E-02    0.00000E+00  8064   0.426E-01 0.000E+00
CGA:   2    -0.932890729071E+02   -0.18974E-02   -0.18976E-02  8064   0.417E-01-0.924E-05
CGA:   3    -0.932916287147E+02   -0.25558E-02   -0.25558E-02  8064   0.138E-01-0.488E-05
CGA:   4    -0.932923698292E+02   -0.74111E-03   -0.74111E-03  8064   0.182E-01 0.523E-06
CGA:   5    -0.932941305702E+02   -0.17607E-02   -0.17607E-02  8064   0.507E-02 0.796E-06
CGA:   6    -0.932944375864E+02   -0.30702E-03   -0.30701E-03  8064   0.269E-02 0.764E-07
CGA:   7    -0.932945682378E+02   -0.13065E-03   -0.13064E-03  8064   0.270E-02-0.842E-06
CGA:   8    -0.932947469557E+02   -0.17872E-03   -0.17872E-03  8064   0.761E-03-0.109E-05
CGA:   9    -0.932947749028E+02   -0.27947E-04   -0.27950E-04  8064   0.454E-03 0.979E-07
CGA:  10    -0.932948258170E+02   -0.50914E-04   -0.50932E-04  8064   0.272E-03-0.401E-06
CGA:  11    -0.932948432643E+02   -0.17447E-04   -0.17448E-04  8064   0.213E-03 0.397E-07
CGA:  12    -0.932948511843E+02   -0.79200E-05   -0.79203E-05  8064   0.111E-03 0.235E-07
CGA:  13    -0.932948637785E+02   -0.12594E-04   -0.12582E-04  8064   0.120E-03 0.263E-06
CGA:  14    -0.932948676491E+02   -0.38706E-05   -0.38768E-05  8064   0.309E-04 0.178E-06
CGA:  15    -0.932948717553E+02   -0.41062E-05   -0.41269E-05  8064   0.321E-04-0.288E-06
CGA:  16    -0.932948729795E+02   -0.12242E-05   -0.12245E-05  8064   0.174E-04 0.227E-07
CGA:  17    -0.932948738811E+02   -0.90156E-06   -0.90185E-06  8064   0.849E-05 0.424E-07
   6 F= -.93294874E+02 E0= -.93297317E+02  d E =-.894146E-04  mag=     2.2488
       N       E                     dE             d eps       ncg     rms          ort
SDA:   1    -0.932940632097E+02    0.80977E-03    0.00000E+00  8064   0.312E-01 0.000E+00
CGA:   2    -0.932946695781E+02   -0.60637E-03   -0.60665E-03  8064   0.103E-02-0.161E-04
CGA:   3    -0.932947215266E+02   -0.51948E-04   -0.51946E-04  8064   0.110E-02-0.274E-06
CGA:   4    -0.932947856685E+02   -0.64142E-04   -0.64146E-04  8064   0.444E-03 0.431E-06
CGA:   5    -0.932948257728E+02   -0.40104E-04   -0.40105E-04  8064   0.294E-03-0.132E-06
CGA:   6    -0.932948637185E+02   -0.37946E-04   -0.37908E-04  8064   0.252E-03 0.610E-06
CGA:   7    -0.932948697989E+02   -0.60804E-05   -0.60788E-05  8064   0.397E-04-0.406E-07
CGA:   8    -0.932948745545E+02   -0.47557E-05   -0.47668E-05  8064   0.806E-04-0.240E-06
CGA:   9    -0.932948774897E+02   -0.29352E-05   -0.29359E-05  8064   0.147E-04-0.278E-07
CGA:  10    -0.932948786896E+02   -0.11999E-05   -0.12011E-05  8064   0.980E-05-0.206E-07
CGA:  11    -0.932948797494E+02   -0.10598E-05   -0.10649E-05  8064   0.131E-04-0.120E-06
CGA:  12    -0.932948801066E+02   -0.35725E-06   -0.35515E-06  8064   0.287E-05-0.228E-07
   7 F= -.93294880E+02 E0= -.93297316E+02  d E =-.956402E-04  mag=     2.2480
       N       E                     dE             d eps       ncg     rms          ort
SDA:   1    -0.932938047350E+02    0.10750E-02    0.00000E+00  8064   0.110E-01 0.000E+00
CGA:   2    -0.932941166748E+02   -0.31194E-03   -0.31194E-03  8064   0.336E-02-0.290E-05
CGA:   3    -0.932944868799E+02   -0.37021E-03   -0.37017E-03  8064   0.150E-02 0.949E-06
CGA:   4    -0.932946143715E+02   -0.12749E-03   -0.12749E-03  8064   0.275E-02-0.238E-06
CGA:   5    -0.932947401596E+02   -0.12579E-03   -0.12580E-03  8064   0.139E-02-0.244E-07
CGA:   6    -0.932948235061E+02   -0.83347E-04   -0.83359E-04  8064   0.341E-03 0.104E-05
CGA:   7    -0.932948383735E+02   -0.14867E-04   -0.14859E-04  8064   0.264E-03-0.271E-06
CGA:   8    -0.932948654138E+02   -0.27040E-04   -0.27052E-04  8064   0.897E-04-0.386E-06
CGA:   9    -0.932948710680E+02   -0.56542E-05   -0.56545E-05  8064   0.738E-04-0.795E-07
CGA:  10    -0.932948740048E+02   -0.29368E-05   -0.29365E-05  8064   0.454E-04-0.876E-08
CGA:  11    -0.932948782193E+02   -0.42145E-05   -0.42154E-05  8064   0.321E-04-0.770E-07
CGA:  12    -0.932948792917E+02   -0.10723E-05   -0.10710E-05  8064   0.119E-04-0.729E-07
CGA:  13    -0.932948811388E+02   -0.18472E-05   -0.18356E-05  8064   0.859E-05 0.144E-06
CGA:  14    -0.932948815937E+02   -0.45484E-06   -0.45483E-06  8064   0.727E-05-0.627E-07
   8 F= -.93294882E+02 E0= -.93297306E+02  d E =-.971273E-04  mag=     2.2464
       N       E                     dE             d eps       ncg     rms          ort
SDA:   1    -0.932896317691E+02    0.52494E-02    0.00000E+00  8064   0.305E-01 0.000E+00
CGA:   2    -0.932910942944E+02   -0.14625E-02   -0.14627E-02  8064   0.331E-01-0.903E-05
CGA:   3    -0.932927527895E+02   -0.16585E-02   -0.16585E-02  8064   0.810E-02-0.325E-05
CGA:   4    -0.932935076943E+02   -0.75490E-03   -0.75485E-03  8064   0.134E-01 0.152E-05
CGA:   5    -0.932942386486E+02   -0.73095E-03   -0.73095E-03  8064   0.745E-02-0.355E-06
CGA:   6    -0.932946606232E+02   -0.42197E-03   -0.42200E-03  8064   0.131E-02 0.340E-06
CGA:   7    -0.932947309622E+02   -0.70339E-04   -0.70342E-04  8064   0.185E-02 0.205E-07
CGA:   8    -0.932948503765E+02   -0.11941E-03   -0.11941E-03  8064   0.364E-03 0.402E-06
CGA:   9    -0.932948765328E+02   -0.26156E-04   -0.26157E-04  8064   0.244E-03-0.280E-06
CGA:  10    -0.932948881641E+02   -0.11631E-04   -0.11626E-04  8064   0.212E-03-0.314E-06
CGA:  11    -0.932949034526E+02   -0.15288E-04   -0.15288E-04  8064   0.763E-04-0.126E-07
CGA:  12    -0.932949059086E+02   -0.24560E-05   -0.24589E-05  8064   0.392E-04 0.677E-07
CGA:  13    -0.932949111501E+02   -0.52415E-05   -0.52463E-05  8064   0.269E-04-0.714E-07
CGA:  14    -0.932949126816E+02   -0.15315E-05   -0.15317E-05  8064   0.192E-04 0.157E-06
CGA:  15    -0.932949134519E+02   -0.77029E-06   -0.77306E-06  8064   0.108E-04 0.529E-07
CGA:  16    -0.932949145428E+02   -0.10909E-05   -0.10934E-05  8064   0.816E-05-0.422E-07
CGA:  17    -0.932949148196E+02   -0.27680E-06   -0.27832E-06  8064   0.336E-05 0.489E-07
   9 F= -.93294915E+02 E0= -.93297332E+02  d E =-.332260E-04  mag=     2.2392
       N       E                     dE             d eps       ncg     rms          ort
SDA:   1    -0.932942100194E+02    0.70452E-03    0.00000E+00  8064   0.875E-02 0.000E+00
CGA:   2    -0.932944126069E+02   -0.20259E-03   -0.20257E-03  8064   0.248E-02-0.595E-06
CGA:   3    -0.932946670085E+02   -0.25440E-03   -0.25441E-03  8064   0.944E-03-0.199E-06
CGA:   4    -0.932947520750E+02   -0.85067E-04   -0.85063E-04  8064   0.158E-02 0.427E-07
CGA:   5    -0.932948334275E+02   -0.81352E-04   -0.81351E-04  8064   0.974E-03-0.303E-06
CGA:   6    -0.932948866383E+02   -0.53211E-04   -0.53219E-04  8064   0.290E-03 0.675E-06
CGA:   7    -0.932948958440E+02   -0.92057E-05   -0.92150E-05  8064   0.126E-03 0.236E-06
CGA:   8    -0.932949113943E+02   -0.15550E-04   -0.15560E-04  8064   0.547E-04-0.179E-06
CGA:   9    -0.932949141815E+02   -0.27872E-05   -0.27892E-05  8064   0.436E-04 0.589E-07
CGA:  10    -0.932949159366E+02   -0.17551E-05   -0.17547E-05  8064   0.188E-04 0.975E-08
CGA:  11    -0.932949180300E+02   -0.20934E-05   -0.21025E-05  8064   0.123E-04-0.184E-06
CGA:  12    -0.932949184166E+02   -0.38658E-06   -0.38550E-06  8064   0.461E-05 0.944E-08
  10 F= -.93294918E+02 E0= -.93297334E+02  d E =-.368229E-04  mag=     2.2364
       N       E                     dE             d eps       ncg     rms          ort
SDA:   1    -0.932922885466E+02    0.26295E-02    0.00000E+00  8064   0.238E-01 0.000E+00
CGA:   2    -0.932929479427E+02   -0.65940E-03   -0.65921E-03  8064   0.113E-01 0.193E-05
CGA:   3    -0.932939091446E+02   -0.96120E-03   -0.96121E-03  8064   0.365E-02-0.588E-06
CGA:   4    -0.932943056762E+02   -0.39653E-03   -0.39655E-03  8064   0.548E-02-0.101E-05
CGA:   5    -0.932945782793E+02   -0.27260E-03   -0.27261E-03  8064   0.443E-02-0.872E-08
CGA:   6    -0.932947913559E+02   -0.21308E-03   -0.21309E-03  8064   0.713E-03 0.122E-05
CGA:   7    -0.932948261170E+02   -0.34761E-04   -0.34757E-04  8064   0.735E-03-0.343E-06
CGA:   8    -0.932948837900E+02   -0.57673E-04   -0.57672E-04  8064   0.208E-03-0.399E-07
CGA:   9    -0.932948957267E+02   -0.11937E-04   -0.11937E-04  8064   0.166E-03 0.270E-07
CGA:  10    -0.932949019807E+02   -0.62540E-05   -0.62535E-05  8064   0.789E-04-0.426E-07
CGA:  11    -0.932949106780E+02   -0.86973E-05   -0.87125E-05  8064   0.285E-04-0.326E-06
CGA:  12    -0.932949118675E+02   -0.11895E-05   -0.11872E-05  8064   0.245E-04-0.422E-07
CGA:  13    -0.932949141603E+02   -0.22928E-05   -0.22893E-05  8064   0.183E-04 0.110E-06
CGA:  14    -0.932949149322E+02   -0.77185E-06   -0.77335E-06  8064   0.109E-04 0.107E-07
  11 F= -.93294915E+02 E0= -.93297326E+02  d E =-.333385E-04  mag=     2.2313
       N       E                     dE             d eps       ncg     rms          ort
SDA:   1    -0.932850847543E+02    0.98294E-02    0.00000E+00  8064   0.501E-01 0.000E+00
CGA:   2    -0.932882982477E+02   -0.32135E-02   -0.32135E-02  8064   0.632E-01 0.703E-07
CGA:   3    -0.932908573265E+02   -0.25591E-02   -0.25589E-02  8064   0.155E-01-0.347E-05
CGA:   4    -0.932920701940E+02   -0.12129E-02   -0.12129E-02  8064   0.279E-01-0.232E-05
CGA:   5    -0.932937225183E+02   -0.16523E-02   -0.16523E-02  8064   0.112E-01-0.621E-07
CGA:   6    -0.932943948727E+02   -0.67235E-03   -0.67238E-03  8064   0.204E-02 0.155E-05
CGA:   7    -0.932946034770E+02   -0.20860E-03   -0.20859E-03  8064   0.418E-02 0.109E-06
CGA:   8    -0.932947479474E+02   -0.14447E-03   -0.14448E-03  8064   0.636E-03 0.703E-06
CGA:   9    -0.932947884237E+02   -0.40476E-04   -0.40476E-04  8064   0.560E-03-0.280E-06
CGA:  10    -0.932948159711E+02   -0.27547E-04   -0.27539E-04  8064   0.344E-03-0.620E-06
CGA:  11    -0.932948448807E+02   -0.28910E-04   -0.28906E-04  8064   0.755E-04 0.166E-06
CGA:  12    -0.932948497273E+02   -0.48467E-05   -0.48468E-05  8064   0.137E-03-0.259E-07
CGA:  13    -0.932948585203E+02   -0.87929E-05   -0.87933E-05  8064   0.429E-04 0.604E-07
CGA:  14    -0.932948610153E+02   -0.24950E-05   -0.24967E-05  8064   0.318E-04 0.225E-06
CGA:  15    -0.932948626976E+02   -0.16823E-05   -0.16816E-05  8064   0.221E-04 0.341E-08
CGA:  16    -0.932948646372E+02   -0.19396E-05   -0.19398E-05  8064   0.955E-05-0.246E-07
CGA:  17    -0.932948650297E+02   -0.39250E-06   -0.39323E-06  8064   0.903E-05 0.548E-07
  12 F= -.93294865E+02 E0= -.93297267E+02  d E =0.165640E-04  mag=     2.2211
       N       E                     dE             d eps       ncg     rms          ort
SDA:   1    -0.932897463850E+02    0.51183E-02    0.00000E+00  8064   0.244E-01 0.000E+00
CGA:   2    -0.932918488780E+02   -0.21025E-02   -0.21024E-02  8064   0.287E-01 0.807E-06
CGA:   3    -0.932927707367E+02   -0.92186E-03   -0.92177E-03  8064   0.856E-02 0.141E-05
CGA:   4    -0.932936266880E+02   -0.85595E-03   -0.85586E-03  8064   0.135E-01 0.961E-06
CGA:   5    -0.932942578225E+02   -0.63113E-03   -0.63114E-03  8064   0.700E-02-0.277E-05
CGA:   6    -0.932946611135E+02   -0.40329E-03   -0.40330E-03  8064   0.107E-02 0.991E-06
CGA:   7    -0.932947891825E+02   -0.12807E-03   -0.12814E-03  8064   0.146E-02-0.142E-05
CGA:   8    -0.932948386112E+02   -0.49429E-04   -0.49422E-04  8064   0.601E-03-0.224E-06
CGA:   9    -0.932948700121E+02   -0.31401E-04   -0.31406E-04  8064   0.165E-03 0.368E-06
CGA:  10    -0.932948829239E+02   -0.12912E-04   -0.12913E-04  8064   0.277E-03 0.298E-07
CGA:  11    -0.932948979939E+02   -0.15070E-04   -0.15075E-04  8064   0.324E-04 0.448E-06
CGA:  12    -0.932949021495E+02   -0.41556E-05   -0.41413E-05  8064   0.738E-04 0.238E-06
CGA:  13    -0.932949047431E+02   -0.25936E-05   -0.25982E-05  8064   0.240E-04 0.127E-06
CGA:  14    -0.932949063896E+02   -0.16465E-05   -0.16467E-05  8064   0.108E-04-0.490E-07
CGA:  15    -0.932949071218E+02   -0.73223E-06   -0.73263E-06  8064   0.145E-04-0.942E-07
  13 F= -.93294907E+02 E0= -.93297314E+02  d E =-.255282E-04  mag=     2.2279
       N       E                     dE             d eps       ncg     rms          ort
SDA:   1    -0.932944619326E+02    0.44446E-03    0.00000E+00  8064   0.592E-02 0.000E+00
CGA:   2    -0.932946068261E+02   -0.14489E-03   -0.14487E-03  8064   0.174E-02 0.132E-05
CGA:   3    -0.932947315853E+02   -0.12476E-03   -0.12475E-03  8064   0.964E-03 0.596E-06
CGA:   4    -0.932947948670E+02   -0.63282E-04   -0.63282E-04  8064   0.850E-03-0.741E-06
CGA:   5    -0.932948361527E+02   -0.41286E-04   -0.41287E-04  8064   0.493E-03-0.828E-07
CGA:   6    -0.932948937300E+02   -0.57577E-04   -0.57584E-04  8064   0.230E-03-0.172E-06
CGA:   7    -0.932948999382E+02   -0.62082E-05   -0.62068E-05  8064   0.812E-04-0.116E-06
CGA:   8    -0.932949072959E+02   -0.73577E-05   -0.73655E-05  8064   0.514E-04-0.270E-06
CGA:   9    -0.932949112241E+02   -0.39282E-05   -0.39285E-05  8064   0.354E-04-0.689E-08
CGA:  10    -0.932949123658E+02   -0.11417E-05   -0.11437E-05  8064   0.104E-04 0.748E-07
CGA:  11    -0.932949135216E+02   -0.11559E-05   -0.11510E-05  8064   0.162E-04 0.779E-07
CGA:  12    -0.932949140307E+02   -0.50904E-06   -0.50918E-06  8064   0.329E-05 0.379E-08
  14 F= -.93294914E+02 E0= -.93297323E+02  d E =-.324370E-04  mag=     2.2300
       N       E                     dE             d eps       ncg     rms          ort
SDA:   1    -0.932948222141E+02    0.91308E-04    0.00000E+00  8064   0.348E-02 0.000E+00
CGA:   2    -0.932948907596E+02   -0.68546E-04   -0.68544E-04  8064   0.256E-03 0.139E-05
CGA:   3    -0.932949014749E+02   -0.10715E-04   -0.10727E-04  8064   0.655E-04 0.457E-06
CGA:   4    -0.932949050456E+02   -0.35707E-05   -0.35701E-05  8064   0.716E-04 0.118E-06
CGA:   5    -0.932949107783E+02   -0.57326E-05   -0.57252E-05  8064   0.190E-04 0.434E-06
CGA:   6    -0.932949144069E+02   -0.36286E-05   -0.36206E-05  8064   0.126E-04 0.537E-07
CGA:   7    -0.932949149430E+02   -0.53617E-06   -0.53491E-06  8064   0.867E-05-0.162E-07
  15 F= -.93294915E+02 E0= -.93297324E+02  d E =-.333493E-04  mag=     2.2306
       N       E                     dE             d eps       ncg     rms          ort
SDA:   1    -0.932915850240E+02    0.33294E-02    0.00000E+00  8064   0.220E-01 0.000E+00
CGA:   2    -0.932922209098E+02   -0.63589E-03   -0.63581E-03  8064   0.121E-01-0.165E-05
CGA:   3    -0.932934475771E+02   -0.12267E-02   -0.12268E-02  8064   0.639E-02-0.337E-05
CGA:   4    -0.932938146508E+02   -0.36707E-03   -0.36706E-03  8064   0.736E-02-0.237E-05
CGA:   5    -0.932943738521E+02   -0.55920E-03   -0.55920E-03  8064   0.437E-02 0.665E-07
CGA:   6    -0.932946838866E+02   -0.31003E-03   -0.31003E-03  8064   0.126E-02 0.778E-07
CGA:   7    -0.932947405053E+02   -0.56619E-04   -0.56629E-04  8064   0.141E-02 0.245E-06
CGA:   8    -0.932948475748E+02   -0.10707E-03   -0.10705E-03  8064   0.474E-03 0.158E-05
CGA:   9    -0.932948775205E+02   -0.29946E-04   -0.29946E-04  8064   0.357E-03-0.180E-06
CGA:  10    -0.932948951738E+02   -0.17653E-04   -0.17656E-04  8064   0.250E-03 0.134E-06
CGA:  11    -0.932949236793E+02   -0.28506E-04   -0.28517E-04  8064   0.123E-03-0.276E-06
CGA:  12    -0.932949279794E+02   -0.43000E-05   -0.42980E-05  8064   0.937E-04-0.106E-06
CGA:  13    -0.932949390936E+02   -0.11114E-04   -0.11126E-04  8064   0.379E-04-0.248E-06
CGA:  14    -0.932949408506E+02   -0.17569E-05   -0.17577E-05  8064   0.240E-04 0.530E-07
CGA:  15    -0.932949421970E+02   -0.13464E-05   -0.13498E-05  8064   0.157E-04 0.236E-06
CGA:  16    -0.932949435397E+02   -0.13428E-05   -0.13420E-05  8064   0.142E-04 0.102E-06
CGA:  17    -0.932949439642E+02   -0.42445E-06   -0.42549E-06  8064   0.369E-05 0.306E-07
  16 F= -.93294944E+02 E0= -.93297369E+02  d E =-.290212E-04  mag=     2.2257
