 vasp.6.4.3 19Mar24 (build Mar 26 2024 14:05:37) complex                        
  
 executed on             LinuxIFC date 2024.12.16  14:50:56
 running  128 mpi-ranks, on    1 nodes
 distrk:  each k-point on   32 cores,    4 groups
 distr:  one band on NCORE=   1 cores,   32 groups


--------------------------------------------------------------------------------------------------------


 INCAR:
   ALGO = All
   EDIFF = 1e-06
   EDIFFG = -0.01
   ENCUT = 520
   GGA = Pe
   IBRION = 2
   ISIF = 4
   ISMEAR = 1
   ISPIN = 2
   KPAR = 4
   LCHARG = True
   LORBIT = 11
   LREAL = False
   LWAVE = False
   MAGMOM = 1*-2.459 1*2.382 1*2.38 1*-2.473 1*-2.475 1*2.575 1*-2.459 1*2.382 1*2.38 2*-0.092 1*0.214
   NELM = 200
   NSW = 100
   PREC = Accurate
   SIGMA = 0.2

 POTCAR:    PAW_PBE Fe_pv 02Aug2007               
 POTCAR:    PAW_PBE Pt 04Feb2005                  
 -----------------------------------------------------------------------------
|                                                                             |
|           W    W    AA    RRRRR   N    N  II  N    N   GGGG   !!!           |
|           W    W   A  A   R    R  NN   N  II  NN   N  G    G  !!!           |
|           W    W  A    A  R    R  N N  N  II  N N  N  G       !!!           |
|           W WW W  AAAAAA  RRRRR   N  N N  II  N  N N  G  GGG   !            |
|           WW  WW  A    A  R   R   N   NN  II  N   NN  G    G                |
|           W    W  A    A  R    R  N    N  II  N    N   GGGG   !!!           |
|                                                                             |
|     For optimal performance we recommend to set                             |
|       NCORE = 2 up to number-of-cores-per-socket                            |
|     NCORE specifies how many cores store one orbital (NPAR=cpu/NCORE).      |
|     This setting can greatly improve the performance of VASP for DFT.       |
|     The default, NCORE=1 might be grossly inefficient on modern             |
|     multi-core architectures or massively parallel machines. Do your        |
|     own testing! More info at https://www.vasp.at/wiki/index.php/NCORE      |
|     Unfortunately you need to use the default for GW and RPA                |
|     calculations (for HF NCORE is supported but not extensively tested      |
|     yet).                                                                   |
|                                                                             |
 -----------------------------------------------------------------------------

 POTCAR:    PAW_PBE Fe_pv 02Aug2007               
   SHA256 =  5d22e414b1f82158bf2c7ecb8b97b28fd0923e48cadc1c3bf74d524558f5dd32 Fe_pv/POTCAR          
   COPYR  = (c) Copyright 02Aug2007 Georg Kresse                                                    
   COPYR  = This file is part of the software VASP. Any use, copying, and all other rights are regul
   COPYR  = If you do not have a valid VASP license, you may not use, copy or distribute this file. 
   VRHFIN =Fe:  3pd7s1                                                                              
   LEXCH  = PE                                                                                      
   EATOM  =  2457.4239 eV,  180.6156 Ry                                                             
                                                                                                    
   TITEL  = PAW_PBE Fe_pv 02Aug2007                                                                 
   LULTRA =        F    use ultrasoft PP ?                                                          
   IUNSCR =        1    unscreen: 0-lin 1-nonlin 2-no                                               
   RPACOR =    1.750    partial core radius                                                         
   POMASS =   55.847; ZVAL   =   14.000    mass and valenz                                          
   RCORE  =    2.200    outmost cutoff radius                                                       
   RWIGS  =    2.200; RWIGS  =    1.164    wigner-seitz radius (au A)                               
   ENMAX  =  293.238; ENMIN  =  219.928 eV                                                          
   ICORE  =        3    local potential                                                             
   LCOR   =        T    correct aug charges                                                         
   LPAW   =        T    paw PP                                                                      
   EAUG   =  578.342                                                                                
   DEXC   =    0.000                                                                                
   RMAX   =    2.249    core radius for proj-oper                                                   
   RAUG   =    1.300    factor for augmentation sphere                                              
   RDEP   =    2.296    radius for radial grids                                                     
   RDEPT  =    1.766    core radius for aug-charge                                                  
                                                                                                    
   Atomic configuration                                                                             
    8 entries                                                                                       
     n  l   j            E        occ.                                                              
     1  0  0.50     -6993.8440   2.0000                                                             
     2  0  0.50      -814.6047   2.0000                                                             
     2  1  1.50      -693.3689   6.0000                                                             
     3  0  0.50       -89.4732   2.0000                                                             
     3  1  1.50       -55.6373   6.0000                                                             
     3  2  2.50        -3.8151   7.0000                                                             
     4  0  0.50        -4.2551   1.0000                                                             
     4  3  2.50        -1.3606   0.0000                                                             
   Description                                                                                      
     l       E           TYP  RCUT    TYP  RCUT                                                     
     1    -55.6372668     23  2.000                                                                 
     1     -5.4423304     23  2.000                                                                 
     2     -3.8151096     23  2.200                                                                 
     2     -5.1756922     23  2.200                                                                 
     0     -4.2550951     23  2.200                                                                 
     0     27.2116520     23  2.200                                                                 
     3     -1.3605826     23  2.200                                                                 
  local pseudopotential read in
  partial core-charges read in
  partial kinetic energy density read in
  atomic valenz-charges read in
  non local Contribution for L=           1  read in
    real space projection operators read in
  non local Contribution for L=           1  read in
    real space projection operators read in
  non local Contribution for L=           2  read in
    real space projection operators read in
  non local Contribution for L=           2  read in
    real space projection operators read in
  non local Contribution for L=           0  read in
    real space projection operators read in
  non local Contribution for L=           0  read in
    real space projection operators read in
    PAW grid and wavefunctions read in
 
   number of l-projection  operators is LMAX  =           6
   number of lm-projection operators is LMMAX =          18
 
 POTCAR:    PAW_PBE Pt 04Feb2005                  
   SHA256 =  3ed90460adef76debcff1cfb73ee1349b515b1a3db03439735b44de3a8db7dc8 Pt/POTCAR             
   COPYR  = (c) Copyright 04Feb2005 Georg Kresse                                                    
   COPYR  = This file is part of the software VASP. Any use, copying, and all other rights are regul
   COPYR  = If you do not have a valid VASP license, you may not use, copy or distribute this file. 
   VRHFIN =Pt: s1d9                                                                                 
   LEXCH  = PE                                                                                      
   EATOM  =   729.1176 eV,   53.5886 Ry                                                             
                                                                                                    
   TITEL  = PAW_PBE Pt 04Feb2005                                                                    
   LULTRA =        F    use ultrasoft PP ?                                                          
   IUNSCR =        1    unscreen: 0-lin 1-nonlin 2-no                                               
   RPACOR =    2.330    partial core radius                                                         
   POMASS =  195.080; ZVAL   =   10.000    mass and valenz                                          
   RCORE  =    2.600    outmost cutoff radius                                                       
   RWIGS  =    2.750; RWIGS  =    1.455    wigner-seitz radius (au A)                               
   ENMAX  =  230.283; ENMIN  =  172.712 eV                                                          
   ICORE  =        3    local potential                                                             
   LCOR   =        T    correct aug charges                                                         
   LPAW   =        T    paw PP                                                                      
   EAUG   =  358.966                                                                                
   DEXC   =    0.000                                                                                
   RMAX   =    2.658    core radius for proj-oper                                                   
   RAUG   =    1.300    factor for augmentation sphere                                              
   RDEP   =    2.761    radius for radial grids                                                     
   RDEPT  =    2.203    core radius for aug-charge                                                  
                                                                                                    
   Atomic configuration                                                                             
   16 entries                                                                                       
     n  l   j            E        occ.                                                              
     1  0  0.50    -78401.1885   2.0000                                                             
     2  0  0.50    -13770.7750   2.0000                                                             
     2  1  1.50    -11931.0468   6.0000                                                             
     3  0  0.50     -3234.7234   2.0000                                                             
     3  1  1.50     -2699.2216   6.0000                                                             
     3  2  2.50     -2119.5714  10.0000                                                             
     4  0  0.50      -695.1528   2.0000                                                             
     4  1  1.50      -519.6034   6.0000                                                             
     4  2  2.50      -306.6786  10.0000                                                             
     4  3  3.50       -70.1041  14.0000                                                             
     5  0  0.50      -101.7747   2.0000                                                             
     5  1  1.50       -55.9873   6.0000                                                             
     5  2  2.50        -6.1423   9.0000                                                             
     6  0  0.50        -5.6573   1.0000                                                             
     6  1  1.50        -6.8029   0.0000                                                             
     5  3  2.50        -1.3606   0.0000                                                             
   Description                                                                                      
     l       E           TYP  RCUT    TYP  RCUT                                                     
     2     -6.1423404     23  2.500                                                                 
     2     -7.5029230     23  2.500                                                                 
     0     -5.6573207     23  2.500                                                                 
     0      0.7416693     23  2.500                                                                 
     1     -2.7211652     23  2.600                                                                 
     1     20.4087390     23  2.600                                                                 
     3     -1.3605826     23  2.500                                                                 
  local pseudopotential read in
  partial core-charges read in
  partial kinetic energy density read in
  atomic valenz-charges read in
  non local Contribution for L=           2  read in
    real space projection operators read in
  non local Contribution for L=           2  read in
    real space projection operators read in
  non local Contribution for L=           0  read in
    real space projection operators read in
  non local Contribution for L=           0  read in
    real space projection operators read in
  non local Contribution for L=           1  read in
    real space projection operators read in
  non local Contribution for L=           1  read in
    real space projection operators read in
    PAW grid and wavefunctions read in
 
   number of l-projection  operators is LMAX  =           6
   number of lm-projection operators is LMMAX =          18
 
  PAW_PBE Fe_pv 02Aug2007               :
 energy of atom  1       EATOM=-2457.4239
 kinetic energy error for atom=    0.0062 (will be added to EATOM!!)
  PAW_PBE Pt 04Feb2005                  :
 energy of atom  2       EATOM= -729.1176
 kinetic energy error for atom=    0.0032 (will be added to EATOM!!)
 
 
 POSCAR: Fe9 Pt3
  positions in direct lattice
  velocities in cartesian coordinates


 exchange-correlation table for PE
   RHO(1)=    0.500       N(1)  =     2000
   RHO(2)=  100.500       N(2)  =     4000
 


--------------------------------------------------------------------------------------------------------


 ion  position               nearest neighbor table
   1  0.000  0.500  0.167-   4 2.57   4 2.57   5 2.57   5 2.57   7 2.58   7 2.58   7 2.58   7 2.58
                            10 2.62  10 2.62  11 2.62  11 2.62
   2  0.000  0.500  0.500-  11 2.58  11 2.58   8 2.58   8 2.58   8 2.58   8 2.58   6 2.60   6 2.60
                            12 2.60  12 2.60   5 2.63   5 2.63
   3  0.000  0.500  0.834-  10 2.58  10 2.58   9 2.58   9 2.58   9 2.58   9 2.58  12 2.60  12 2.60
                             6 2.60   6 2.60   4 2.62   4 2.62
   4  0.500  0.500  0.004-   1 2.57   7 2.57   7 2.57   1 2.57  10 2.58  10 2.58  10 2.58  10 2.58
                             9 2.62   3 2.62   9 2.62   3 2.62
   5  0.500  0.500  0.329-   1 2.57   7 2.57   7 2.57   1 2.57  11 2.58  11 2.58  11 2.58  11 2.58
                             8 2.63   2 2.63   8 2.63   2 2.63
   6  0.500  0.500  0.667-  12 2.58  12 2.58  12 2.58  12 2.58   9 2.60   3 2.60   3 2.60   9 2.60
                             2 2.60   8 2.60   2 2.60   8 2.60
   7  0.500  0.000  0.167-   4 2.57   4 2.57   5 2.57   5 2.57   1 2.58   1 2.58   1 2.58   1 2.58
                            10 2.62  10 2.62  11 2.62  11 2.62
   8  0.500  0.000  0.500-  11 2.58  11 2.58   2 2.58   2 2.58   2 2.58   2 2.58   6 2.60   6 2.60
                            12 2.60  12 2.60   5 2.63   5 2.63
   9  0.500  0.000  0.834-  10 2.58  10 2.58   3 2.58   3 2.58   3 2.58   3 2.58  12 2.60  12 2.60
                             6 2.60   6 2.60   4 2.62   4 2.62
  10  0.000  0.000  0.998-   3 2.58   9 2.58   3 2.58   9 2.58   4 2.58   4 2.58   4 2.58   4 2.58
                             1 2.62   7 2.62   7 2.62   1 2.62
  11  0.000  0.000  0.335-   2 2.58   8 2.58   2 2.58   8 2.58   5 2.58   5 2.58   5 2.58   5 2.58
                             1 2.62   7 2.62   7 2.62   1 2.62
  12  0.000  0.000  0.667-   6 2.58   6 2.58   6 2.58   6 2.58   3 2.60   9 2.60   9 2.60   3 2.60
                             2 2.60   8 2.60   8 2.60   2 2.60
 
  LATTYP: Found a simple tetragonal cell.
 ALAT       =     3.6543368934
 C/A-ratio  =     3.0327455067
  
  Lattice vectors:
  
 A1 = (   3.6543368934,   0.0000000000,   0.0000000000)
 A2 = (   0.0000000000,   3.6543368934,   0.0000000000)
 A3 = (   0.0000000000,   0.0000000000,  11.0826737933)


Analysis of symmetry for initial positions (statically):
=====================================================================
 Subroutine PRICEL returns:
 Original cell was already a primitive cell.
 

 Routine SETGRP: Setting up the symmetry group for a 
 simple tetragonal supercell.


 Subroutine GETGRP returns: Found  8 space group operations
 (whereof  8 operations were pure point group operations)
 out of a pool of 16 trial point group operations.


The static configuration has the point symmetry C_4v.


Analysis of symmetry for dynamics (positions and initial velocities):
=====================================================================
 Subroutine PRICEL returns:
 Original cell was already a primitive cell.
 

 Routine SETGRP: Setting up the symmetry group for a 
 simple tetragonal supercell.


 Subroutine GETGRP returns: Found  8 space group operations
 (whereof  8 operations were pure point group operations)
 out of a pool of 16 trial point group operations.


The dynamic configuration has the point symmetry C_4v.


Analysis of structural, dynamic, and magnetic symmetry:
=====================================================================
 Subroutine PRICEL returns:
 Original cell was already a primitive cell.
 

 Routine SETGRP: Setting up the symmetry group for a 
 simple tetragonal supercell.


 Subroutine GETGRP returns: Found  8 space group operations
 (whereof  8 operations were pure point group operations)
 out of a pool of 16 trial point group operations.


The overall configuration has the point symmetry C_4v.


 Subroutine INISYM returns: Found  8 space group operations
 (whereof  8 operations are pure point group operations),
 and found     1 'primitive' translations


----------------------------------------------------------------------------------------

                                     Primitive cell                                     

  volume of cell :     148.0000

  direct lattice vectors                    reciprocal lattice vectors
     3.654336893  0.000000000  0.000000000     0.273647458  0.000000000  0.000000000
     0.000000000  3.654336893  0.000000000     0.000000000  0.273647458  0.000000000
     0.000000000  0.000000000 11.082673793     0.000000000  0.000000000  0.090230933

  length of vectors
     3.654336893  3.654336893 11.082673793     0.273647458  0.273647458  0.090230933

  position of ions in fractional coordinates (direct lattice)
     0.000000000  0.500000000  0.166614632
     0.000000000  0.500000000  0.499521517
     0.000000000  0.500000000  0.833858858
     0.500000000  0.500000000  0.003895750
     0.500000000  0.500000000  0.329399683
     0.500000000  0.500000000  0.666717703
     0.500000000  0.000000000  0.166614632
     0.500000000  0.000000000  0.499521517
     0.500000000  0.000000000  0.833858858
     0.000000000  0.000000000  0.997808209
     0.000000000  0.000000000  0.335458809
     0.000000000  0.000000000  0.666729832

  ion indices of the primitive-cell ions
   primitive index   ion index
                 1           1
                 2           2
                 3           3
                 4           4
                 5           5
                 6           6
                 7           7
                 8           8
                 9           9
                10          10
                11          11
                12          12

----------------------------------------------------------------------------------------

 
 
 KPOINTS: pymatgen with grid density = 8800 / numb

Automatic generation of k-mesh.
 Grid dimensions read from file:
 generate k-points for:   13   13    4

 Generating k-lattice:

  Cartesian coordinates                     Fractional coordinates (reciprocal lattice)
     0.021049804  0.000000000  0.000000000     0.076923077  0.000000000  0.000000000
     0.000000000  0.021049804  0.000000000     0.000000000  0.076923077  0.000000000
     0.000000000  0.000000000  0.022557733     0.000000000  0.000000000  0.250000000

  Length of vectors
     0.021049804  0.021049804  0.022557733

  Shift w.r.t. Gamma in fractional coordinates (k-lattice)
     0.000000000  0.000000000  0.000000000

 
 Subroutine IBZKPT returns following result:
 ===========================================
 
 Found     84 irreducible k-points:
 
 Following reciprocal coordinates:
            Coordinates               Weight
  0.000000  0.000000  0.000000      1.000000
  0.076923  0.000000  0.000000      4.000000
  0.153846  0.000000  0.000000      4.000000
  0.230769  0.000000  0.000000      4.000000
  0.307692  0.000000  0.000000      4.000000
  0.384615  0.000000  0.000000      4.000000
  0.461538  0.000000  0.000000      4.000000
  0.076923  0.076923  0.000000      4.000000
  0.153846  0.076923  0.000000      8.000000
  0.230769  0.076923  0.000000      8.000000
  0.307692  0.076923  0.000000      8.000000
  0.384615  0.076923  0.000000      8.000000
  0.461538  0.076923  0.000000      8.000000
  0.153846  0.153846  0.000000      4.000000
  0.230769  0.153846  0.000000      8.000000
  0.307692  0.153846  0.000000      8.000000
  0.384615  0.153846  0.000000      8.000000
  0.461538  0.153846  0.000000      8.000000
  0.230769  0.230769  0.000000      4.000000
  0.307692  0.230769  0.000000      8.000000
  0.384615  0.230769  0.000000      8.000000
  0.461538  0.230769  0.000000      8.000000
  0.307692  0.307692  0.000000      4.000000
  0.384615  0.307692  0.000000      8.000000
  0.461538  0.307692  0.000000      8.000000
  0.384615  0.384615  0.000000      4.000000
  0.461538  0.384615  0.000000      8.000000
  0.461538  0.461538  0.000000      4.000000
  0.000000  0.000000  0.250000      2.000000
  0.076923  0.000000  0.250000      8.000000
  0.153846  0.000000  0.250000      8.000000
  0.230769  0.000000  0.250000      8.000000
  0.307692  0.000000  0.250000      8.000000
  0.384615  0.000000  0.250000      8.000000
  0.461538  0.000000  0.250000      8.000000
  0.076923  0.076923  0.250000      8.000000
  0.153846  0.076923  0.250000     16.000000
  0.230769  0.076923  0.250000     16.000000
  0.307692  0.076923  0.250000     16.000000
  0.384615  0.076923  0.250000     16.000000
  0.461538  0.076923  0.250000     16.000000
  0.153846  0.153846  0.250000      8.000000
  0.230769  0.153846  0.250000     16.000000
  0.307692  0.153846  0.250000     16.000000
  0.384615  0.153846  0.250000     16.000000
  0.461538  0.153846  0.250000     16.000000
  0.230769  0.230769  0.250000      8.000000
  0.307692  0.230769  0.250000     16.000000
  0.384615  0.230769  0.250000     16.000000
  0.461538  0.230769  0.250000     16.000000
  0.307692  0.307692  0.250000      8.000000
  0.384615  0.307692  0.250000     16.000000
  0.461538  0.307692  0.250000     16.000000
  0.384615  0.384615  0.250000      8.000000
  0.461538  0.384615  0.250000     16.000000
  0.461538  0.461538  0.250000      8.000000
  0.000000  0.000000  0.500000      1.000000
  0.076923  0.000000  0.500000      4.000000
  0.153846  0.000000  0.500000      4.000000
  0.230769  0.000000  0.500000      4.000000
  0.307692  0.000000  0.500000      4.000000
  0.384615  0.000000  0.500000      4.000000
  0.461538  0.000000  0.500000      4.000000
  0.076923  0.076923  0.500000      4.000000
  0.153846  0.076923  0.500000      8.000000
  0.230769  0.076923  0.500000      8.000000
  0.307692  0.076923  0.500000      8.000000
  0.384615  0.076923  0.500000      8.000000
  0.461538  0.076923  0.500000      8.000000
  0.153846  0.153846  0.500000      4.000000
  0.230769  0.153846  0.500000      8.000000
  0.307692  0.153846  0.500000      8.000000
  0.384615  0.153846  0.500000      8.000000
  0.461538  0.153846  0.500000      8.000000
  0.230769  0.230769  0.500000      4.000000
  0.307692  0.230769  0.500000      8.000000
  0.384615  0.230769  0.500000      8.000000
  0.461538  0.230769  0.500000      8.000000
  0.307692  0.307692  0.500000      4.000000
  0.384615  0.307692  0.500000      8.000000
  0.461538  0.307692  0.500000      8.000000
  0.384615  0.384615  0.500000      4.000000
  0.461538  0.384615  0.500000      8.000000
  0.461538  0.461538  0.500000      4.000000
 
 Following cartesian coordinates:
            Coordinates               Weight
  0.000000  0.000000  0.000000      1.000000
  0.021050  0.000000  0.000000      4.000000
  0.042100  0.000000  0.000000      4.000000
  0.063149  0.000000  0.000000      4.000000
  0.084199  0.000000  0.000000      4.000000
  0.105249  0.000000  0.000000      4.000000
  0.126299  0.000000  0.000000      4.000000
  0.021050  0.021050  0.000000      4.000000
  0.042100  0.021050  0.000000      8.000000
  0.063149  0.021050  0.000000      8.000000
  0.084199  0.021050  0.000000      8.000000
  0.105249  0.021050  0.000000      8.000000
  0.126299  0.021050  0.000000      8.000000
  0.042100  0.042100  0.000000      4.000000
  0.063149  0.042100  0.000000      8.000000
  0.084199  0.042100  0.000000      8.000000
  0.105249  0.042100  0.000000      8.000000
  0.126299  0.042100  0.000000      8.000000
  0.063149  0.063149  0.000000      4.000000
  0.084199  0.063149  0.000000      8.000000
  0.105249  0.063149  0.000000      8.000000
  0.126299  0.063149  0.000000      8.000000
  0.084199  0.084199  0.000000      4.000000
  0.105249  0.084199  0.000000      8.000000
  0.126299  0.084199  0.000000      8.000000
  0.105249  0.105249  0.000000      4.000000
  0.126299  0.105249  0.000000      8.000000
  0.126299  0.126299  0.000000      4.000000
  0.000000  0.000000  0.022558      2.000000
  0.021050  0.000000  0.022558      8.000000
  0.042100  0.000000  0.022558      8.000000
  0.063149  0.000000  0.022558      8.000000
  0.084199  0.000000  0.022558      8.000000
  0.105249  0.000000  0.022558      8.000000
  0.126299  0.000000  0.022558      8.000000
  0.021050  0.021050  0.022558      8.000000
  0.042100  0.021050  0.022558     16.000000
  0.063149  0.021050  0.022558     16.000000
  0.084199  0.021050  0.022558     16.000000
  0.105249  0.021050  0.022558     16.000000
  0.126299  0.021050  0.022558     16.000000
  0.042100  0.042100  0.022558      8.000000
  0.063149  0.042100  0.022558     16.000000
  0.084199  0.042100  0.022558     16.000000
  0.105249  0.042100  0.022558     16.000000
  0.126299  0.042100  0.022558     16.000000
  0.063149  0.063149  0.022558      8.000000
  0.084199  0.063149  0.022558     16.000000
  0.105249  0.063149  0.022558     16.000000
  0.126299  0.063149  0.022558     16.000000
  0.084199  0.084199  0.022558      8.000000
  0.105249  0.084199  0.022558     16.000000
  0.126299  0.084199  0.022558     16.000000
  0.105249  0.105249  0.022558      8.000000
  0.126299  0.105249  0.022558     16.000000
  0.126299  0.126299  0.022558      8.000000
  0.000000  0.000000  0.045115      1.000000
  0.021050  0.000000  0.045115      4.000000
  0.042100  0.000000  0.045115      4.000000
  0.063149  0.000000  0.045115      4.000000
  0.084199  0.000000  0.045115      4.000000
  0.105249  0.000000  0.045115      4.000000
  0.126299  0.000000  0.045115      4.000000
  0.021050  0.021050  0.045115      4.000000
  0.042100  0.021050  0.045115      8.000000
  0.063149  0.021050  0.045115      8.000000
  0.084199  0.021050  0.045115      8.000000
  0.105249  0.021050  0.045115      8.000000
  0.126299  0.021050  0.045115      8.000000
  0.042100  0.042100  0.045115      4.000000
  0.063149  0.042100  0.045115      8.000000
  0.084199  0.042100  0.045115      8.000000
  0.105249  0.042100  0.045115      8.000000
  0.126299  0.042100  0.045115      8.000000
  0.063149  0.063149  0.045115      4.000000
  0.084199  0.063149  0.045115      8.000000
  0.105249  0.063149  0.045115      8.000000
  0.126299  0.063149  0.045115      8.000000
  0.084199  0.084199  0.045115      4.000000
  0.105249  0.084199  0.045115      8.000000
  0.126299  0.084199  0.045115      8.000000
  0.105249  0.105249  0.045115      4.000000
  0.126299  0.105249  0.045115      8.000000
  0.126299  0.126299  0.045115      4.000000
 


--------------------------------------------------------------------------------------------------------




 Dimension of arrays:
   k-points           NKPTS =     84   k-points in BZ     NKDIM =     84   number of bands    NBANDS=     96
   number of dos      NEDOS =    301   number of ions     NIONS =     12
   non local maximal  LDIM  =      6   non local SUM 2l+1 LMDIM =     18
   total plane-waves  NPLWV =  65856
   max r-space proj   IRMAX =      1   max aug-charges    IRDMAX=  27147
   dimension x,y,z NGX =    28 NGY =   28 NGZ =   84
   dimension x,y,z NGXF=    56 NGYF=   56 NGZF=  168
   support grid    NGXF=    56 NGYF=   56 NGZF=  168
   ions per type =               9   3
   NGX,Y,Z   is equivalent  to a cutoff of  12.74, 12.74, 12.60 a.u.
   NGXF,Y,Z  is equivalent  to a cutoff of  25.48, 25.48, 25.20 a.u.

 SYSTEM =  unknown system                          
 POSCAR =  Fe9 Pt3                                 

 Startparameter for this run:
   NWRITE =      2    write-flag & timer
   PREC   = accura    normal or accurate (medium, high low for compatibility)
   ISTART =      0    job   : 0-new  1-cont  2-samecut
   ICHARG =      2    charge: 1-file 2-atom 10-const
   ISPIN  =      2    spin polarized calculation?
   LNONCOLLINEAR =      F non collinear calculations
   LSORBIT =      F    spin-orbit coupling
   INIWAV =      1    electr: 0-lowe 1-rand  2-diag
   LASPH  =      F    aspherical Exc in radial PAW
 Electronic Relaxation 1
   ENCUT  =  520.0 eV  38.22 Ry    6.18 a.u.   6.79  6.79 20.61*2*pi/ulx,y,z
   ENINI  =  520.0     initial cutoff
   ENAUG  =  578.3 eV  augmentation charge cutoff
   NELM   =    200;   NELMIN=  2; NELMDL=  0     # of ELM steps 
   EDIFF  = 0.1E-05   stopping-criterion for ELM
   LREAL  =      F    real-space projection
   NLSPLINE    = F    spline interpolate recip. space projectors
   LCOMPAT=      F    compatible to vasp.4.4
   GGA_COMPAT  = T    GGA compatible to vasp.4.4-vasp.4.6
   LMAXPAW     = -100 max onsite density
   LMAXMIX     =    2 max onsite mixed and CHGCAR
   VOSKOWN=      0    Vosko Wilk Nusair interpolation
   ROPT   =    0.00000   0.00000
 Ionic relaxation
   EDIFFG = -.1E-01   stopping-criterion for IOM
   NSW    =    100    number of steps for IOM
   NBLOCK =      1;   KBLOCK =    100    inner block; outer block 
   IBRION =      2    ionic relax: 0-MD 1-quasi-New 2-CG
   NFREE  =      1    steps in history (QN), initial steepest desc. (CG)
   ISIF   =      4    stress and relaxation
   IWAVPR =     11    prediction:  0-non 1-charg 2-wave 3-comb
   ISYM   =      2    0-nonsym 1-usesym 2-fastsym
   LCORR  =      T    Harris-Foulkes like correction to forces

   POTIM  = 0.5000    time-step for ionic-motion
   TEIN   =    0.0    initial temperature
   TEBEG  =    0.0;   TEEND  =   0.0 temperature during run
   SMASS  =  -3.00    Nose mass-parameter (am)
   estimated Nose-frequenzy (Omega)   =  0.10E-29 period in steps = 0.13E+47 mass=  -0.305E-27a.u.
   SCALEE = 1.0000    scale energy and forces
   NPACO  =    256;   APACO  = 10.0  distance and # of slots for P.C.
   PSTRESS=    0.0 pullay stress

  Mass of Ions in am
   POMASS =  55.85195.08
  Ionic Valenz
   ZVAL   =  14.00 10.00
  Atomic Wigner-Seitz radii
   RWIGS  =  -1.00 -1.00
  virtual crystal weights 
   VCA    =   1.00  1.00
   NELECT =     156.0000    total number of electrons
   NUPDOWN=      -1.0000    fix difference up-down

 DOS related values:
   EMIN   =  10.00;   EMAX   =-10.00  energy-range for DOS
   EFERMI =   0.00;   METHOD = LEGACY      
   ISMEAR =     1;   SIGMA  =   0.20  broadening in eV -4-tet -1-fermi 0-gaus

 Electronic relaxation 2 (details)
   IALGO  =     58    algorithm
   LDIAG  =      T    sub-space diagonalisation (order eigenvalues)
   LSUBROT=      F    optimize rotation matrix (better conditioning)
   TURBO    =      0    0=normal 1=particle mesh
   IRESTART =      0    0=no restart 2=restart with 2 vectors
   NREBOOT  =      0    no. of reboots
   NMIN     =      0    reboot dimension
   EREF     =   0.00    reference energy to select bands
   IMIX   =      4    mixing-type and parameters
     AMIX     =   0.40;   BMIX     =  1.00
     AMIX_MAG =   1.60;   BMIX_MAG =  1.00
     AMIN     =   0.10
     WC   =   100.;   INIMIX=   1;  MIXPRE=   1;  MAXMIX= -45

 Intra band minimization:
   WEIMIN = 0.0010     energy-eigenvalue tresh-hold
   EBREAK =  0.26E-08  absolut break condition
   DEPER  =   0.30     relativ break condition  

   TIME   =   0.40     timestep for ELM

  volume/ion in A,a.u.               =      12.33        83.23
  Fermi-wavevector in a.u.,A,eV,Ry     =   1.666080  3.148434 37.767349  2.775822
  Thomas-Fermi vector in A             =   2.752338
 
 Write flags
   LWAVE        =      F    write WAVECAR
   LDOWNSAMPLE  =      F    k-point downsampling of WAVECAR
   LCHARG       =      T    write CHGCAR
   LVTOT        =      F    write LOCPOT, total local potential
   LVHAR        =      F    write LOCPOT, Hartree potential only
   WRT_POTENTIAL= false  ! write potential to hdf5 file
   LELF         =      F    write electronic localiz. function (ELF)
   LORBIT       =     11    0 simple, 1 ext, 2 COOP (PROOUT), +10 PAW based schemes


 Dipole corrections
   LMONO      =      F    monopole corrections only (constant potential shift)
   LDIPOL     =      F    correct potential (dipole corrections)
   IDIPOL     =      0    1-x, 2-y, 3-z, 4-all directions 
   EPSILON    =  1.0000000 bulk dielectric constant
   LVACPOTAV  =      F  vacuum potentials using an averaging scheme for the charge density
   VACPOTFLAT =  0.1000000 required flatness to determine vacuum potential
 Exchange correlation treatment:
   GGA     = PE    functional components
   XC_C    = 1    coefficients multiplying the functional components
   LIBXC   =     F    Libxc                    
   VOSKOWN =     0    Vosko Wilk Nusair interpolation
   LHFCALC =     F    Hartree Fock is set to
   LHFONE  =     F    Hartree Fock one center treatment
   AEXX    =    0.0000 exact exchange contribution

 Parameters of functionals:
   PE:
     No parameter
 
 Van der Waals corrections
   IVDW    =     0    specifies the selected vdW correction

 Linear response parameters
   LEPSILON=     F    determine dielectric tensor
   LRPA    =     F    only Hartree local field effects (RPA)
   LNABLA  =     F    use nabla operator in PAW spheres
   LVEL    =     F    velocity operator in full k-point grid
   CSHIFT  =0.1000    complex shift for real part using Kramers Kronig
   OMEGAMAX=  -1.0    maximum frequency
   DEG_THRESHOLD= 0.2000000E-02 threshold for treating states as degnerate
   RTIME   =   -0.100 relaxation time in fs
  (WPLASMAI=    0.000 imaginary part of plasma frequency in eV, 0.658/RTIME)
   DFIELD  = 0.0000000 0.0000000 0.0000000 field for delta impulse in time
 
  Optional k-point grid parameters
   LKPOINTS_OPT  =     F    use optional k-point grid
   KPOINTS_OPT_MODE=     1    mode for optional k-point grid
 
 Orbital magnetization related:
   ORBITALMAG=     F  switch on orbital magnetization
   LCHIMAG   =     F  perturbation theory with respect to B field
   DQ        =  0.001000  dq finite difference perturbation B field
   LLRAUG    =     F  two centre corrections for induced B field
   LBONE     =     F  B-component reconstruction in AE one-centre
   LVGVCALC  =     T  calculate vGv susceptibility
   LVGVAPPL  =     F  apply vGv susceptibility instead of pGv for G=0

 Random number generation:
   RANDOM_GENERATOR = DEFAULT
   PCG_SEED         = not used


--------------------------------------------------------------------------------------------------------


 conjugate gradient relaxation of ions
 charge density and potential will be updated during run
 spin polarized calculation
 Conjugate gradient for all bands (Freysoldt, et al. PRB 79, 241103 (2009))
 preconditioned conjugated gradient                                        
 perform sub-space diagonalisation
    before iterative eigenvector-optimisation
 modified Broyden-mixing scheme, WC =      100.0
 initial mixing is a Kerker type mixing with AMIX =  0.4000 and BMIX =      1.0000
 Hartree-type preconditioning will be used
 using additional bands           18
 reciprocal scheme for non local part
 use partial core corrections
 no Harris-corrections to forces 
 use gradient corrections 
 use of overlap-Matrix (Vanderbilt PP)
 Methfessel and Paxton  Order N= 1 SIGMA  =   0.20


--------------------------------------------------------------------------------------------------------


  energy-cutoff  :      520.00
  volume of cell :      148.00
      direct lattice vectors                 reciprocal lattice vectors
     3.654336893  0.000000000  0.000000000     0.273647458  0.000000000  0.000000000
     0.000000000  3.654336893  0.000000000     0.000000000  0.273647458  0.000000000
     0.000000000  0.000000000 11.082673793     0.000000000  0.000000000  0.090230933

  length of vectors
     3.654336893  3.654336893 11.082673793     0.273647458  0.273647458  0.090230933


 
 k-points in units of 2pi/SCALE and weight: pymatgen with grid density = 8800 / numb
   0.00000000  0.00000000  0.00000000       0.001
   0.02104980  0.00000000  0.00000000       0.006
   0.04209961  0.00000000  0.00000000       0.006
   0.06314941  0.00000000  0.00000000       0.006
   0.08419922  0.00000000  0.00000000       0.006
   0.10524902  0.00000000  0.00000000       0.006
   0.12629883  0.00000000  0.00000000       0.006
   0.02104980  0.02104980  0.00000000       0.006
   0.04209961  0.02104980  0.00000000       0.012
   0.06314941  0.02104980  0.00000000       0.012
   0.08419922  0.02104980  0.00000000       0.012
   0.10524902  0.02104980  0.00000000       0.012
   0.12629883  0.02104980  0.00000000       0.012
   0.04209961  0.04209961  0.00000000       0.006
   0.06314941  0.04209961  0.00000000       0.012
   0.08419922  0.04209961  0.00000000       0.012
   0.10524902  0.04209961  0.00000000       0.012
   0.12629883  0.04209961  0.00000000       0.012
   0.06314941  0.06314941  0.00000000       0.006
   0.08419922  0.06314941  0.00000000       0.012
   0.10524902  0.06314941  0.00000000       0.012
   0.12629883  0.06314941  0.00000000       0.012
   0.08419922  0.08419922  0.00000000       0.006
   0.10524902  0.08419922  0.00000000       0.012
   0.12629883  0.08419922  0.00000000       0.012
   0.10524902  0.10524902  0.00000000       0.006
   0.12629883  0.10524902  0.00000000       0.012
   0.12629883  0.12629883  0.00000000       0.006
   0.00000000  0.00000000  0.02255773       0.003
   0.02104980  0.00000000  0.02255773       0.012
   0.04209961  0.00000000  0.02255773       0.012
   0.06314941  0.00000000  0.02255773       0.012
   0.08419922  0.00000000  0.02255773       0.012
   0.10524902  0.00000000  0.02255773       0.012
   0.12629883  0.00000000  0.02255773       0.012
   0.02104980  0.02104980  0.02255773       0.012
   0.04209961  0.02104980  0.02255773       0.024
   0.06314941  0.02104980  0.02255773       0.024
   0.08419922  0.02104980  0.02255773       0.024
   0.10524902  0.02104980  0.02255773       0.024
   0.12629883  0.02104980  0.02255773       0.024
   0.04209961  0.04209961  0.02255773       0.012
   0.06314941  0.04209961  0.02255773       0.024
   0.08419922  0.04209961  0.02255773       0.024
   0.10524902  0.04209961  0.02255773       0.024
   0.12629883  0.04209961  0.02255773       0.024
   0.06314941  0.06314941  0.02255773       0.012
   0.08419922  0.06314941  0.02255773       0.024
   0.10524902  0.06314941  0.02255773       0.024
   0.12629883  0.06314941  0.02255773       0.024
   0.08419922  0.08419922  0.02255773       0.012
   0.10524902  0.08419922  0.02255773       0.024
   0.12629883  0.08419922  0.02255773       0.024
   0.10524902  0.10524902  0.02255773       0.012
   0.12629883  0.10524902  0.02255773       0.024
   0.12629883  0.12629883  0.02255773       0.012
   0.00000000  0.00000000  0.04511547       0.001
   0.02104980  0.00000000  0.04511547       0.006
   0.04209961  0.00000000  0.04511547       0.006
   0.06314941  0.00000000  0.04511547       0.006
   0.08419922  0.00000000  0.04511547       0.006
   0.10524902  0.00000000  0.04511547       0.006
   0.12629883  0.00000000  0.04511547       0.006
   0.02104980  0.02104980  0.04511547       0.006
   0.04209961  0.02104980  0.04511547       0.012
   0.06314941  0.02104980  0.04511547       0.012
   0.08419922  0.02104980  0.04511547       0.012
   0.10524902  0.02104980  0.04511547       0.012
   0.12629883  0.02104980  0.04511547       0.012
   0.04209961  0.04209961  0.04511547       0.006
   0.06314941  0.04209961  0.04511547       0.012
   0.08419922  0.04209961  0.04511547       0.012
   0.10524902  0.04209961  0.04511547       0.012
   0.12629883  0.04209961  0.04511547       0.012
   0.06314941  0.06314941  0.04511547       0.006
   0.08419922  0.06314941  0.04511547       0.012
   0.10524902  0.06314941  0.04511547       0.012
   0.12629883  0.06314941  0.04511547       0.012
   0.08419922  0.08419922  0.04511547       0.006
   0.10524902  0.08419922  0.04511547       0.012
   0.12629883  0.08419922  0.04511547       0.012
   0.10524902  0.10524902  0.04511547       0.006
   0.12629883  0.10524902  0.04511547       0.012
   0.12629883  0.12629883  0.04511547       0.006
 
 k-points in reciprocal lattice and weights: pymatgen with grid density = 8800 / numb
   0.00000000  0.00000000  0.00000000       0.001
   0.07692308  0.00000000  0.00000000       0.006
   0.15384615  0.00000000  0.00000000       0.006
   0.23076923  0.00000000  0.00000000       0.006
   0.30769231  0.00000000  0.00000000       0.006
   0.38461538  0.00000000  0.00000000       0.006
   0.46153846  0.00000000  0.00000000       0.006
   0.07692308  0.07692308  0.00000000       0.006
   0.15384615  0.07692308  0.00000000       0.012
   0.23076923  0.07692308  0.00000000       0.012
   0.30769231  0.07692308  0.00000000       0.012
   0.38461538  0.07692308  0.00000000       0.012
   0.46153846  0.07692308  0.00000000       0.012
   0.15384615  0.15384615  0.00000000       0.006
   0.23076923  0.15384615  0.00000000       0.012
   0.30769231  0.15384615  0.00000000       0.012
   0.38461538  0.15384615  0.00000000       0.012
   0.46153846  0.15384615  0.00000000       0.012
   0.23076923  0.23076923  0.00000000       0.006
   0.30769231  0.23076923  0.00000000       0.012
   0.38461538  0.23076923  0.00000000       0.012
   0.46153846  0.23076923  0.00000000       0.012
   0.30769231  0.30769231  0.00000000       0.006
   0.38461538  0.30769231  0.00000000       0.012
   0.46153846  0.30769231  0.00000000       0.012
   0.38461538  0.38461538  0.00000000       0.006
   0.46153846  0.38461538  0.00000000       0.012
   0.46153846  0.46153846  0.00000000       0.006
   0.00000000  0.00000000  0.25000000       0.003
   0.07692308  0.00000000  0.25000000       0.012
   0.15384615  0.00000000  0.25000000       0.012
   0.23076923  0.00000000  0.25000000       0.012
   0.30769231  0.00000000  0.25000000       0.012
   0.38461538  0.00000000  0.25000000       0.012
   0.46153846  0.00000000  0.25000000       0.012
   0.07692308  0.07692308  0.25000000       0.012
   0.15384615  0.07692308  0.25000000       0.024
   0.23076923  0.07692308  0.25000000       0.024
   0.30769231  0.07692308  0.25000000       0.024
   0.38461538  0.07692308  0.25000000       0.024
   0.46153846  0.07692308  0.25000000       0.024
   0.15384615  0.15384615  0.25000000       0.012
   0.23076923  0.15384615  0.25000000       0.024
   0.30769231  0.15384615  0.25000000       0.024
   0.38461538  0.15384615  0.25000000       0.024
   0.46153846  0.15384615  0.25000000       0.024
   0.23076923  0.23076923  0.25000000       0.012
   0.30769231  0.23076923  0.25000000       0.024
   0.38461538  0.23076923  0.25000000       0.024
   0.46153846  0.23076923  0.25000000       0.024
   0.30769231  0.30769231  0.25000000       0.012
   0.38461538  0.30769231  0.25000000       0.024
   0.46153846  0.30769231  0.25000000       0.024
   0.38461538  0.38461538  0.25000000       0.012
   0.46153846  0.38461538  0.25000000       0.024
   0.46153846  0.46153846  0.25000000       0.012
   0.00000000  0.00000000  0.50000000       0.001
   0.07692308  0.00000000  0.50000000       0.006
   0.15384615  0.00000000  0.50000000       0.006
   0.23076923  0.00000000  0.50000000       0.006
   0.30769231  0.00000000  0.50000000       0.006
   0.38461538  0.00000000  0.50000000       0.006
   0.46153846  0.00000000  0.50000000       0.006
   0.07692308  0.07692308  0.50000000       0.006
   0.15384615  0.07692308  0.50000000       0.012
   0.23076923  0.07692308  0.50000000       0.012
   0.30769231  0.07692308  0.50000000       0.012
   0.38461538  0.07692308  0.50000000       0.012
   0.46153846  0.07692308  0.50000000       0.012
   0.15384615  0.15384615  0.50000000       0.006
   0.23076923  0.15384615  0.50000000       0.012
   0.30769231  0.15384615  0.50000000       0.012
   0.38461538  0.15384615  0.50000000       0.012
   0.46153846  0.15384615  0.50000000       0.012
   0.23076923  0.23076923  0.50000000       0.006
   0.30769231  0.23076923  0.50000000       0.012
   0.38461538  0.23076923  0.50000000       0.012
   0.46153846  0.23076923  0.50000000       0.012
   0.30769231  0.30769231  0.50000000       0.006
   0.38461538  0.30769231  0.50000000       0.012
   0.46153846  0.30769231  0.50000000       0.012
   0.38461538  0.38461538  0.50000000       0.006
   0.46153846  0.38461538  0.50000000       0.012
   0.46153846  0.46153846  0.50000000       0.006
 
 position of ions in fractional coordinates (direct lattice) 
   0.00000000  0.50000000  0.16661463
   0.00000000  0.50000000  0.49952152
   0.00000000  0.50000000  0.83385886
   0.50000000  0.50000000  0.00389575
   0.50000000  0.50000000  0.32939968
   0.50000000  0.50000000  0.66671770
   0.50000000  0.00000000  0.16661463
   0.50000000  0.00000000  0.49952152
   0.50000000  0.00000000  0.83385886
   0.00000000  0.00000000  0.99780821
   0.00000000  0.00000000  0.33545881
   0.00000000  0.00000000  0.66672983
 
 position of ions in cartesian coordinates  (Angst):
   0.00000000  1.82716845  1.84653562
   0.00000000  1.82716845  5.53603402
   0.00000000  1.82716845  9.24138572
   1.82716845  1.82716845  0.04317532
   1.82716845  1.82716845  3.65062923
   1.82716845  1.82716845  7.38901482
   1.82716845  0.00000000  1.84653562
   1.82716845  0.00000000  5.53603402
   1.82716845  0.00000000  9.24138572
   0.00000000  0.00000000 11.05838289
   0.00000000  0.00000000  3.71778055
   0.00000000  0.00000000  7.38914924
 


--------------------------------------------------------------------------------------------------------


 k-point     1 :   0.0000 0.0000 0.0000  plane waves:    3993
 k-point     2 :   0.0769 0.0000 0.0000  plane waves:    3997
 k-point     3 :   0.1538 0.0000 0.0000  plane waves:    3985
 k-point     4 :   0.2308 0.0000 0.0000  plane waves:    3980
 k-point     5 :   0.3077 0.0000 0.0000  plane waves:    3980
 k-point     6 :   0.3846 0.0000 0.0000  plane waves:    3996
 k-point     7 :   0.4615 0.0000 0.0000  plane waves:    3970
 k-point     8 :   0.0769 0.0769 0.0000  plane waves:    3983
 k-point     9 :   0.1538 0.0769 0.0000  plane waves:    3998
 k-point    10 :   0.2308 0.0769 0.0000  plane waves:    3981
 k-point    11 :   0.3077 0.0769 0.0000  plane waves:    3975
 k-point    12 :   0.3846 0.0769 0.0000  plane waves:    3991
 k-point    13 :   0.4615 0.0769 0.0000  plane waves:    3973
 k-point    14 :   0.1538 0.1538 0.0000  plane waves:    3987
 k-point    15 :   0.2308 0.1538 0.0000  plane waves:    3969
 k-point    16 :   0.3077 0.1538 0.0000  plane waves:    3978
 k-point    17 :   0.3846 0.1538 0.0000  plane waves:    3989
 k-point    18 :   0.4615 0.1538 0.0000  plane waves:    3981
 k-point    19 :   0.2308 0.2308 0.0000  plane waves:    3976
 k-point    20 :   0.3077 0.2308 0.0000  plane waves:    3974
 k-point    21 :   0.3846 0.2308 0.0000  plane waves:    4000
 k-point    22 :   0.4615 0.2308 0.0000  plane waves:    3990
 k-point    23 :   0.3077 0.3077 0.0000  plane waves:    3984
 k-point    24 :   0.3846 0.3077 0.0000  plane waves:    3981
 k-point    25 :   0.4615 0.3077 0.0000  plane waves:    3997
 k-point    26 :   0.3846 0.3846 0.0000  plane waves:    3990
 k-point    27 :   0.4615 0.3846 0.0000  plane waves:    4000
 k-point    28 :   0.4615 0.4615 0.0000  plane waves:    4028
 k-point    29 :   0.0000 0.0000 0.2500  plane waves:    3989
 k-point    30 :   0.0769 0.0000 0.2500  plane waves:    3992
 k-point    31 :   0.1538 0.0000 0.2500  plane waves:    3983
 k-point    32 :   0.2308 0.0000 0.2500  plane waves:    3979
 k-point    33 :   0.3077 0.0000 0.2500  plane waves:    3983
 k-point    34 :   0.3846 0.0000 0.2500  plane waves:    3982
 k-point    35 :   0.4615 0.0000 0.2500  plane waves:    3977
 k-point    36 :   0.0769 0.0769 0.2500  plane waves:    3987
 k-point    37 :   0.1538 0.0769 0.2500  plane waves:    3979
 k-point    38 :   0.2308 0.0769 0.2500  plane waves:    3987
 k-point    39 :   0.3077 0.0769 0.2500  plane waves:    3982
 k-point    40 :   0.3846 0.0769 0.2500  plane waves:    3983
 k-point    41 :   0.4615 0.0769 0.2500  plane waves:    3977
 k-point    42 :   0.1538 0.1538 0.2500  plane waves:    3979
 k-point    43 :   0.2308 0.1538 0.2500  plane waves:    3980
 k-point    44 :   0.3077 0.1538 0.2500  plane waves:    3986
 k-point    45 :   0.3846 0.1538 0.2500  plane waves:    3978
 k-point    46 :   0.4615 0.1538 0.2500  plane waves:    3975
 k-point    47 :   0.2308 0.2308 0.2500  plane waves:    3975
 k-point    48 :   0.3077 0.2308 0.2500  plane waves:    3973
 k-point    49 :   0.3846 0.2308 0.2500  plane waves:    3982
 k-point    50 :   0.4615 0.2308 0.2500  plane waves:    3991
 k-point    51 :   0.3077 0.3077 0.2500  plane waves:    3988
 k-point    52 :   0.3846 0.3077 0.2500  plane waves:    3992
 k-point    53 :   0.4615 0.3077 0.2500  plane waves:    3996
 k-point    54 :   0.3846 0.3846 0.2500  plane waves:    3997
 k-point    55 :   0.4615 0.3846 0.2500  plane waves:    3997
 k-point    56 :   0.4615 0.4615 0.2500  plane waves:    4002
 k-point    57 :   0.0000 0.0000 0.5000  plane waves:    4002
 k-point    58 :   0.0769 0.0000 0.5000  plane waves:    3980
 k-point    59 :   0.1538 0.0000 0.5000  plane waves:    3980
 k-point    60 :   0.2308 0.0000 0.5000  plane waves:    3970
 k-point    61 :   0.3077 0.0000 0.5000  plane waves:    3994
 k-point    62 :   0.3846 0.0000 0.5000  plane waves:    3986
 k-point    63 :   0.4615 0.0000 0.5000  plane waves:    3990
 k-point    64 :   0.0769 0.0769 0.5000  plane waves:    3988
 k-point    65 :   0.1538 0.0769 0.5000  plane waves:    3970
 k-point    66 :   0.2308 0.0769 0.5000  plane waves:    3978
 k-point    67 :   0.3077 0.0769 0.5000  plane waves:    3990
 k-point    68 :   0.3846 0.0769 0.5000  plane waves:    3984
 k-point    69 :   0.4615 0.0769 0.5000  plane waves:    3978
 k-point    70 :   0.1538 0.1538 0.5000  plane waves:    3978
 k-point    71 :   0.2308 0.1538 0.5000  plane waves:    3978
 k-point    72 :   0.3077 0.1538 0.5000  plane waves:    3984
 k-point    73 :   0.3846 0.1538 0.5000  plane waves:    3994
 k-point    74 :   0.4615 0.1538 0.5000  plane waves:    3962
 k-point    75 :   0.2308 0.2308 0.5000  plane waves:    3982
 k-point    76 :   0.3077 0.2308 0.5000  plane waves:    3982
 k-point    77 :   0.3846 0.2308 0.5000  plane waves:    3978
 k-point    78 :   0.4615 0.2308 0.5000  plane waves:    3986
 k-point    79 :   0.3077 0.3077 0.5000  plane waves:    3980
 k-point    80 :   0.3846 0.3077 0.5000  plane waves:    3992
 k-point    81 :   0.4615 0.3077 0.5000  plane waves:    3986
 k-point    82 :   0.3846 0.3846 0.5000  plane waves:    3996
 k-point    83 :   0.4615 0.3846 0.5000  plane waves:    4002
 k-point    84 :   0.4615 0.4615 0.5000  plane waves:    4010

 maximum and minimum number of plane-waves per node :      4028     3962

 maximum number of plane-waves:      4028
 maximum index in each direction: 
   IXMAX=    6   IYMAX=    6   IZMAX=   20
   IXMIN=   -7   IYMIN=   -7   IZMIN=  -21


 serial   3D FFT for wavefunctions
 parallel 3D FFT for charge:
    minimum data exchange during FFTs selected (reduces bandwidth)


 total amount of memory used by VASP MPI-rank0   239350. kBytes
=======================================================================

   base      :      30000. kBytes
   nonl-proj :      98316. kBytes
   fftplans  :        888. kBytes
   grid      :       6813. kBytes
   one-center:        373. kBytes
   wavefun   :     102960. kBytes
 
     INWAV:  cpu time      0.0000: real time      0.0000
 Broyden mixing: mesh for mixing (old mesh)
   NGX = 13   NGY = 13   NGZ = 41
  (NGX  = 56   NGY  = 56   NGZ  =168)
  gives a total of   6929 points

 initial charge density was supplied:
 charge density of overlapping atoms calculated
 number of electron     156.0000000 magnetization       2.2630000
 charge density for first step will be calculated from the start-wavefunctions


--------------------------------------------------------------------------------------------------------


 Maximum index for augmentation-charges         1063 (set IRDMAX)


--------------------------------------------------------------------------------------------------------


 First call to EWALD:  gamma=   0.335
 Maximum number of real-space cells 4x 4x 2
 Maximum number of reciprocal cells 2x 2x 5

    FEWALD:  cpu time      0.0017: real time      0.0018


--------------------------------------- Ionic step        1  -------------------------------------------




--------------------------------------- Iteration      1(   1)  ---------------------------------------


    POTLOK:  cpu time      0.0382: real time      0.0390
    SETDIJ:  cpu time      0.0151: real time      0.0154
    TRIAL :  cpu time      4.3576: real time      4.3883
    CORREC:  cpu time      0.0028: real time      0.0028
    --------------------------------------------
      LOOP:  cpu time      4.4694: real time      4.5334

 eigenvalue-minimisations  : 32256
 total energy-change (2. order) : 0.1734785E+04  (-0.9360033E+04)
 number of electron     156.0000000 magnetization       2.2630000
 augmentation part      156.0000000 magnetization       2.2630000

 Free energy of the ion-electron system (eV)
  ---------------------------------------------------
  alpha Z        PSCENC =      1149.93330786
  Ewald energy   TEWEN  =    -18410.25903172
  -Hartree energ DENC   =     -5833.04585367
  -exchange      EXHF   =         0.00000000
  -V(xc)+E(xc)   XCENC  =       658.40945589
  PAW double counting   =     20095.05908480   -20819.08787855
  entropy T*S    EENTRO =         0.00053363
  eigenvalues    EBANDS =       589.67212611
  atomic energy  EATOM  =     24304.10294433
  ---------------------------------------------------
  free energy    TOTEN  =      1734.78468867 eV

  energy without entropy =     1734.78415504  energy(sigma->0) =     1734.78451079


--------------------------------------------------------------------------------------------------------




--------------------------------------- Iteration      1(   2)  ---------------------------------------


    TRIAL :  cpu time      4.2273: real time      4.2566
    CORREC:  cpu time      0.0024: real time      0.0024
    --------------------------------------------
      LOOP:  cpu time      4.2446: real time      4.2812

 eigenvalue-minimisations  : 32384
 total energy-change (2. order) :-0.1727027E+04  (-0.1696373E+04)
 number of electron     156.0000000 magnetization       2.2630000
 augmentation part      156.0000000 magnetization       2.2630000

 Free energy of the ion-electron system (eV)
  ---------------------------------------------------
  alpha Z        PSCENC =      1149.93330786
  Ewald energy   TEWEN  =    -18410.25903172
  -Hartree energ DENC   =     -5833.04585367
  -exchange      EXHF   =         0.00000000
  -V(xc)+E(xc)   XCENC  =       658.40945589
  PAW double counting   =     20095.05908480   -20819.08787855
  entropy T*S    EENTRO =         0.00320314
  eigenvalues    EBANDS =     -1137.35791017
  atomic energy  EATOM  =     24304.10294433
  ---------------------------------------------------
  free energy    TOTEN  =         7.75732190 eV

  energy without entropy =        7.75411876  energy(sigma->0) =        7.75625419


--------------------------------------------------------------------------------------------------------




--------------------------------------- Iteration      1(   3)  ---------------------------------------


    TRIAL :  cpu time      5.2380: real time      5.2733
    CORREC:  cpu time      0.0023: real time      0.0024
    --------------------------------------------
      LOOP:  cpu time      5.2558: real time      5.2980

 eigenvalue-minimisations  : 39424
 total energy-change (2. order) :-0.1105873E+03  (-0.1094250E+03)
 number of electron     156.0000000 magnetization       2.2630000
 augmentation part      156.0000000 magnetization       2.2630000

 Free energy of the ion-electron system (eV)
  ---------------------------------------------------
  alpha Z        PSCENC =      1149.93330786
  Ewald energy   TEWEN  =    -18410.25903172
  -Hartree energ DENC   =     -5833.04585367
  -exchange      EXHF   =         0.00000000
  -V(xc)+E(xc)   XCENC  =       658.40945589
  PAW double counting   =     20095.05908480   -20819.08787855
  entropy T*S    EENTRO =         0.01047527
  eigenvalues    EBANDS =     -1247.95248739
  atomic energy  EATOM  =     24304.10294433
  ---------------------------------------------------
  free energy    TOTEN  =      -102.82998319 eV

  energy without entropy =     -102.84045846  energy(sigma->0) =     -102.83347495


--------------------------------------------------------------------------------------------------------




--------------------------------------- Iteration      1(   4)  ---------------------------------------


    TRIAL :  cpu time      4.2980: real time      4.3271
    CORREC:  cpu time      0.0024: real time      0.0024
    --------------------------------------------
      LOOP:  cpu time      4.3152: real time      4.3517

 eigenvalue-minimisations  : 32640
 total energy-change (2. order) :-0.2311841E+01  (-0.2308324E+01)
 number of electron     156.0000000 magnetization       2.2630000
 augmentation part      156.0000000 magnetization       2.2630000

 Free energy of the ion-electron system (eV)
  ---------------------------------------------------
  alpha Z        PSCENC =      1149.93330786
  Ewald energy   TEWEN  =    -18410.25903172
  -Hartree energ DENC   =     -5833.04585367
  -exchange      EXHF   =         0.00000000
  -V(xc)+E(xc)   XCENC  =       658.40945589
  PAW double counting   =     20095.05908480   -20819.08787855
  entropy T*S    EENTRO =         0.01087546
  eigenvalues    EBANDS =     -1250.26472880
  atomic energy  EATOM  =     24304.10294433
  ---------------------------------------------------
  free energy    TOTEN  =      -105.14182441 eV

  energy without entropy =     -105.15269987  energy(sigma->0) =     -105.14544956


--------------------------------------------------------------------------------------------------------




--------------------------------------- Iteration      1(   5)  ---------------------------------------


    TRIAL :  cpu time      5.7192: real time      5.7567
    CORREC:  cpu time      0.0024: real time      0.0025
    CHARGE:  cpu time      0.1591: real time      0.1604
    --------------------------------------------
      LOOP:  cpu time      5.8966: real time      5.9420

 eigenvalue-minimisations  : 41120
 total energy-change (2. order) :-0.5260904E-01  (-0.5259156E-01)
 number of electron     155.9999977 magnetization       1.8332810
 augmentation part       79.2483457 magnetization       1.3298867

 Free energy of the ion-electron system (eV)
  ---------------------------------------------------
  alpha Z        PSCENC =      1149.93330786
  Ewald energy   TEWEN  =    -18410.25903172
  -Hartree energ DENC   =     -5833.04585367
  -exchange      EXHF   =         0.00000000
  -V(xc)+E(xc)   XCENC  =       658.40945589
  PAW double counting   =     20095.05908480   -20819.08787855
  entropy T*S    EENTRO =         0.01091138
  eigenvalues    EBANDS =     -1250.31737376
  atomic energy  EATOM  =     24304.10294433
  ---------------------------------------------------
  free energy    TOTEN  =      -105.19443345 eV

  energy without entropy =     -105.20534483  energy(sigma->0) =     -105.19807058


--------------------------------------------------------------------------------------------------------




--------------------------------------- Iteration      1(   6)  ---------------------------------------


    POTLOK:  cpu time      0.0219: real time      0.0221
    SETDIJ:  cpu time      0.0089: real time      0.0090
    TRIAL :  cpu time      1.8886: real time      1.9073
    CORREC:  cpu time      0.7642: real time      0.7715
    CHARGE:  cpu time      0.1500: real time      0.1509
    --------------------------------------------
      LOOP:  cpu time      2.8487: real time      2.8809

 eigenvalue-minimisations  :     0
 total energy-change (2. order) : 0.4994397E+02  (-0.2527582E+02)
 number of electron     155.9999975 magnetization       1.8395402
 augmentation part       82.3482254 magnetization       1.4263544

 Free energy of the ion-electron system (eV)
  ---------------------------------------------------
  alpha Z        PSCENC =      1149.93330786
  Ewald energy   TEWEN  =    -18410.25903172
  -Hartree energ DENC   =     -4753.86342098
  -exchange      EXHF   =         0.00000000
  -V(xc)+E(xc)   XCENC  =       612.74877475
  PAW double counting   =     21535.81833224   -22204.35960212
  entropy T*S    EENTRO =         0.01542059
  eigenvalues    EBANDS =     -2289.38268333
  atomic energy  EATOM  =     24304.10294433
  ---------------------------------------------------
  free energy    TOTEN  =       -55.25046759 eV

  energy without entropy =      -55.26588819  energy(sigma->0) =      -55.25560779


--------------------------------------------------------------------------------------------------------




--------------------------------------- Iteration      1(   7)  ---------------------------------------


    POTLOK:  cpu time      0.0213: real time      0.0215
    SETDIJ:  cpu time      0.0079: real time      0.0080
    TRIAL :  cpu time      1.8640: real time      1.8824
    CORREC:  cpu time      0.7646: real time      0.7730
    CHARGE:  cpu time      0.1497: real time      0.1505
    --------------------------------------------
      LOOP:  cpu time      2.8234: real time      2.8585

 eigenvalue-minimisations  :     0
 total energy-change (2. order) :-0.2771733E+02  (-0.4410111E+01)
 number of electron     155.9999975 magnetization       1.9219369
 augmentation part       83.2699956 magnetization       1.4250457

 Free energy of the ion-electron system (eV)
  ---------------------------------------------------
  alpha Z        PSCENC =      1149.93330786
  Ewald energy   TEWEN  =    -18410.25903172
  -Hartree energ DENC   =     -5162.96855341
  -exchange      EXHF   =         0.00000000
  -V(xc)+E(xc)   XCENC  =       629.87750420
  PAW double counting   =     21940.09957363   -22683.99982075
  entropy T*S    EENTRO =         0.01457288
  eigenvalues    EBANDS =     -1849.76913761
  atomic energy  EATOM  =     24304.10294433
  ---------------------------------------------------
  free energy    TOTEN  =       -82.96779287 eV

  energy without entropy =      -82.98236575  energy(sigma->0) =      -82.97265050


--------------------------------------------------------------------------------------------------------




--------------------------------------- Iteration      1(   8)  ---------------------------------------


    POTLOK:  cpu time      0.0217: real time      0.0219
    SETDIJ:  cpu time      0.0083: real time      0.0083
    TRIAL :  cpu time      1.9749: real time      1.9938
    CORREC:  cpu time      0.7673: real time      0.7758
    CHARGE:  cpu time      0.1510: real time      0.1519
    --------------------------------------------
      LOOP:  cpu time      2.9459: real time      2.9747

 eigenvalue-minimisations  :     0
 total energy-change (2. order) :-0.4603126E+01  (-0.2803222E+01)
 number of electron     155.9999976 magnetization       1.8581915
 augmentation part       84.2854377 magnetization       1.4247167

 Free energy of the ion-electron system (eV)
  ---------------------------------------------------
  alpha Z        PSCENC =      1149.93330786
  Ewald energy   TEWEN  =    -18410.25903172
  -Hartree energ DENC   =     -5288.15254228
  -exchange      EXHF   =         0.00000000
  -V(xc)+E(xc)   XCENC  =       635.07305699
  PAW double counting   =     22114.59645880   -22879.00521449
  entropy T*S    EENTRO =         0.01445162
  eigenvalues    EBANDS =     -1713.87447122
  atomic energy  EATOM  =     24304.10294433
  ---------------------------------------------------
  free energy    TOTEN  =       -87.57091883 eV

  energy without entropy =      -87.58537045  energy(sigma->0) =      -87.57573603


--------------------------------------------------------------------------------------------------------




--------------------------------------- Iteration      1(   9)  ---------------------------------------


    POTLOK:  cpu time      0.0218: real time      0.0219
    SETDIJ:  cpu time      0.0080: real time      0.0080
    TRIAL :  cpu time      1.8621: real time      1.8812
    CORREC:  cpu time      0.7665: real time      0.7755
    CHARGE:  cpu time      0.1519: real time      0.1528
    --------------------------------------------
      LOOP:  cpu time      2.8239: real time      2.8612

 eigenvalue-minimisations  :     0
 total energy-change (2. order) :-0.2709549E+01  (-0.1532086E+01)
 number of electron     155.9999976 magnetization       1.9391988
 augmentation part       84.8324662 magnetization       1.4811144

 Free energy of the ion-electron system (eV)
  ---------------------------------------------------
  alpha Z        PSCENC =      1149.93330786
  Ewald energy   TEWEN  =    -18410.25903172
  -Hartree energ DENC   =     -5421.33929249
  -exchange      EXHF   =         0.00000000
  -V(xc)+E(xc)   XCENC  =       640.86112278
  PAW double counting   =     22335.87165873   -23118.32239425
  entropy T*S    EENTRO =         0.01485568
  eigenvalues    EBANDS =     -1571.14323422
  atomic energy  EATOM  =     24304.10294433
  ---------------------------------------------------
  free energy    TOTEN  =       -90.28046737 eV

  energy without entropy =      -90.29532305  energy(sigma->0) =      -90.28541927


--------------------------------------------------------------------------------------------------------




--------------------------------------- Iteration      1(  10)  ---------------------------------------


    POTLOK:  cpu time      0.0220: real time      0.0221
    SETDIJ:  cpu time      0.0083: real time      0.0084
    TRIAL :  cpu time      1.8793: real time      1.8988
    CORREC:  cpu time      0.7680: real time      0.7764
    CHARGE:  cpu time      0.1515: real time      0.1523
    --------------------------------------------
      LOOP:  cpu time      2.8447: real time      2.8797

 eigenvalue-minimisations  :     0
 total energy-change (2. order) :-0.1534418E+01  (-0.2536794E+00)
 number of electron     155.9999976 magnetization       1.9058711
 augmentation part       84.8432934 magnetization       1.4794446

 Free energy of the ion-electron system (eV)
  ---------------------------------------------------
  alpha Z        PSCENC =      1149.93330786
  Ewald energy   TEWEN  =    -18410.25903172
  -Hartree energ DENC   =     -5482.37144072
  -exchange      EXHF   =         0.00000000
  -V(xc)+E(xc)   XCENC  =       643.83675443
  PAW double counting   =     22464.84949438   -23245.34406558
  entropy T*S    EENTRO =         0.01425615
  eigenvalues    EBANDS =     -1516.57770379
  atomic energy  EATOM  =     24304.10294433
  ---------------------------------------------------
  free energy    TOTEN  =       -91.81488512 eV

  energy without entropy =      -91.82914127  energy(sigma->0) =      -91.81963717


--------------------------------------------------------------------------------------------------------




--------------------------------------- Iteration      1(  11)  ---------------------------------------


    POTLOK:  cpu time      0.0220: real time      0.0222
    SETDIJ:  cpu time      0.0074: real time      0.0075
    TRIAL :  cpu time      1.8984: real time      1.9177
    CORREC:  cpu time      0.8684: real time      0.8772
    CHARGE:  cpu time      0.1519: real time      0.1528
    --------------------------------------------
      LOOP:  cpu time      2.9628: real time      2.9996

 eigenvalue-minimisations  :     0
 total energy-change (2. order) :-0.2516294E+00  (-0.3850949E+00)
 number of electron     155.9999976 magnetization       1.9392220
 augmentation part       84.6803457 magnetization       1.5015436

 Free energy of the ion-electron system (eV)
  ---------------------------------------------------
  alpha Z        PSCENC =      1149.93330786
  Ewald energy   TEWEN  =    -18410.25903172
  -Hartree energ DENC   =     -5481.28927854
  -exchange      EXHF   =         0.00000000
  -V(xc)+E(xc)   XCENC  =       643.91629010
  PAW double counting   =     22466.48416151   -23243.67189336
  entropy T*S    EENTRO =         0.01386304
  eigenvalues    EBANDS =     -1521.29727082
  atomic energy  EATOM  =     24304.10294433
  ---------------------------------------------------
  free energy    TOTEN  =       -92.06651448 eV

  energy without entropy =      -92.08037752  energy(sigma->0) =      -92.07113549


--------------------------------------------------------------------------------------------------------




--------------------------------------- Iteration      1(  12)  ---------------------------------------


    POTLOK:  cpu time      0.0218: real time      0.0220
    SETDIJ:  cpu time      0.0082: real time      0.0082
    TRIAL :  cpu time      1.9223: real time      1.9411
    CORREC:  cpu time      0.7609: real time      0.7693
    CHARGE:  cpu time      0.1509: real time      0.1519
    --------------------------------------------
      LOOP:  cpu time      2.8786: real time      2.9139

 eigenvalue-minimisations  :     0
 total energy-change (2. order) :-0.3803102E+00  (-0.3130888E+00)
 number of electron     155.9999976 magnetization       1.9368895
 augmentation part       84.5953874 magnetization       1.5242591

 Free energy of the ion-electron system (eV)
  ---------------------------------------------------
  alpha Z        PSCENC =      1149.93330786
  Ewald energy   TEWEN  =    -18410.25903172
  -Hartree energ DENC   =     -5459.86044896
  -exchange      EXHF   =         0.00000000
  -V(xc)+E(xc)   XCENC  =       643.16327387
  PAW double counting   =     22422.32506438   -23188.39910829
  entropy T*S    EENTRO =         0.01270947
  eigenvalues    EBANDS =     -1553.46668919
  atomic energy  EATOM  =     24304.10294433
  ---------------------------------------------------
  free energy    TOTEN  =       -92.44682468 eV

  energy without entropy =      -92.45953415  energy(sigma->0) =      -92.45106117


--------------------------------------------------------------------------------------------------------




--------------------------------------- Iteration      1(  13)  ---------------------------------------


    POTLOK:  cpu time      0.0215: real time      0.0217
    SETDIJ:  cpu time      0.0078: real time      0.0079
    TRIAL :  cpu time      1.8628: real time      1.8816
    CORREC:  cpu time      0.7628: real time      0.7712
    CHARGE:  cpu time      0.1500: real time      0.1508
    --------------------------------------------
      LOOP:  cpu time      2.8254: real time      2.8554

 eigenvalue-minimisations  :     0
 total energy-change (2. order) :-0.3122580E+00  (-0.1519896E+00)
 number of electron     155.9999976 magnetization       1.9742362
 augmentation part       84.6093543 magnetization       1.5491818

 Free energy of the ion-electron system (eV)
  ---------------------------------------------------
  alpha Z        PSCENC =      1149.93330786
  Ewald energy   TEWEN  =    -18410.25903172
  -Hartree energ DENC   =     -5457.41015714
  -exchange      EXHF   =         0.00000000
  -V(xc)+E(xc)   XCENC  =       643.08336334
  PAW double counting   =     22408.58675936   -23167.68705372
  entropy T*S    EENTRO =         0.01325247
  eigenvalues    EBANDS =     -1563.12192442
  atomic energy  EATOM  =     24304.10294433
  ---------------------------------------------------
  free energy    TOTEN  =       -92.75908265 eV

  energy without entropy =      -92.77233512  energy(sigma->0) =      -92.76350014


--------------------------------------------------------------------------------------------------------




--------------------------------------- Iteration      1(  14)  ---------------------------------------


    POTLOK:  cpu time      0.0215: real time      0.0217
    SETDIJ:  cpu time      0.0079: real time      0.0079
    TRIAL :  cpu time      1.9490: real time      1.9685
    CORREC:  cpu time      0.7625: real time      0.7709
    CHARGE:  cpu time      0.1510: real time      0.1518
    --------------------------------------------
      LOOP:  cpu time      2.9082: real time      2.9430

 eigenvalue-minimisations  :     0
 total energy-change (2. order) :-0.1430738E+00  (-0.1537814E+00)
 number of electron     155.9999977 magnetization       1.9691907
 augmentation part       84.7060736 magnetization       1.5591667

 Free energy of the ion-electron system (eV)
  ---------------------------------------------------
  alpha Z        PSCENC =      1149.93330786
  Ewald energy   TEWEN  =    -18410.25903172
  -Hartree energ DENC   =     -5465.91396452
  -exchange      EXHF   =         0.00000000
  -V(xc)+E(xc)   XCENC  =       643.41533449
  PAW double counting   =     22417.69836663   -23175.27009757
  entropy T*S    EENTRO =         0.01440768
  eigenvalues    EBANDS =     -1556.62226845
  atomic energy  EATOM  =     24304.10294433
  ---------------------------------------------------
  free energy    TOTEN  =       -92.90215648 eV

  energy without entropy =      -92.91656416  energy(sigma->0) =      -92.90695904


--------------------------------------------------------------------------------------------------------




--------------------------------------- Iteration      1(  15)  ---------------------------------------


    POTLOK:  cpu time      0.0216: real time      0.0218
    SETDIJ:  cpu time      0.0082: real time      0.0082
    TRIAL :  cpu time      2.0053: real time      2.0256
    CORREC:  cpu time      0.7689: real time      0.7774
    CHARGE:  cpu time      0.1506: real time      0.1517
    --------------------------------------------
      LOOP:  cpu time      2.9695: real time      3.0074

 eigenvalue-minimisations  :     0
 total energy-change (2. order) :-0.1511947E+00  (-0.4232233E-01)
 number of electron     155.9999977 magnetization       1.9692452
 augmentation part       84.7585192 magnetization       1.5654944

 Free energy of the ion-electron system (eV)
  ---------------------------------------------------
  alpha Z        PSCENC =      1149.93330786
  Ewald energy   TEWEN  =    -18410.25903172
  -Hartree energ DENC   =     -5486.04804170
  -exchange      EXHF   =         0.00000000
  -V(xc)+E(xc)   XCENC  =       644.26801781
  PAW double counting   =     22443.96150219   -23202.42618236
  entropy T*S    EENTRO =         0.01391323
  eigenvalues    EBANDS =     -1536.60027526
  atomic energy  EATOM  =     24304.10294433
  ---------------------------------------------------
  free energy    TOTEN  =       -93.05335116 eV

  energy without entropy =      -93.06726439  energy(sigma->0) =      -93.05798891


--------------------------------------------------------------------------------------------------------




--------------------------------------- Iteration      1(  16)  ---------------------------------------


    POTLOK:  cpu time      0.0212: real time      0.0214
    SETDIJ:  cpu time      0.0085: real time      0.0085
    TRIAL :  cpu time      1.9067: real time      1.9255
    CORREC:  cpu time      0.7662: real time      0.7748
    CHARGE:  cpu time      0.1502: real time      0.1509
    --------------------------------------------
      LOOP:  cpu time      2.8677: real time      2.9033

 eigenvalue-minimisations  :     0
 total energy-change (2. order) :-0.4218291E-01  (-0.9084629E-01)
 number of electron     155.9999977 magnetization       2.0231145
 augmentation part       84.8791614 magnetization       1.6049647

 Free energy of the ion-electron system (eV)
  ---------------------------------------------------
  alpha Z        PSCENC =      1149.93330786
  Ewald energy   TEWEN  =    -18410.25903172
  -Hartree energ DENC   =     -5491.75676059
  -exchange      EXHF   =         0.00000000
  -V(xc)+E(xc)   XCENC  =       644.58100871
  PAW double counting   =     22448.04382944   -23207.40823651
  entropy T*S    EENTRO =         0.01250876
  eigenvalues    EBANDS =     -1530.34650882
  atomic energy  EATOM  =     24304.10294433
  ---------------------------------------------------
  free energy    TOTEN  =       -93.09553407 eV

  energy without entropy =      -93.10804283  energy(sigma->0) =      -93.09970366


--------------------------------------------------------------------------------------------------------




--------------------------------------- Iteration      1(  17)  ---------------------------------------


    POTLOK:  cpu time      0.0218: real time      0.0220
    SETDIJ:  cpu time      0.0082: real time      0.0082
    TRIAL :  cpu time      1.8618: real time      1.8803
    CORREC:  cpu time      0.7619: real time      0.7705
    CHARGE:  cpu time      0.1518: real time      0.1526
    --------------------------------------------
      LOOP:  cpu time      2.8189: real time      2.8555

 eigenvalue-minimisations  :     0
 total energy-change (2. order) :-0.9091977E-01  (-0.2790608E-01)
 number of electron     155.9999977 magnetization       2.0178992
[...]
     46       7.4136      1.00000
     47       7.5414      1.00000
     48       7.5806      1.00000
     49       7.6380      1.00000
     50       7.6431      1.00000
     51       7.8119      1.00000
     52       7.8505      1.00000
     53       7.8546      1.00000
     54       7.9391      1.00000
     55       7.9579      1.00000
     56       8.0744      1.00000
     57       8.0873      1.00000
     58       8.2526      1.00000
     59       8.2909      1.00000
     60       8.7709      1.00000
     61       8.8410      1.00000
     62       9.0298      1.00000
     63       9.1558      1.00000
     64       9.2589      1.00000
     65       9.4264      1.00000
     66       9.4643      1.00000
     67       9.4690      1.00000
     68       9.5233      1.00000
     69       9.5925      1.00000
     70       9.6028      1.00000
     71       9.6395      1.00000
     72       9.6399      1.00000
     73       9.9172      1.00002
     74      10.0166      1.00035
     75      10.0972      1.00223
     76      10.2163      1.01636
     77      10.3930      1.00530
     78      10.4673      0.86770
     79      10.6148      0.30076
     80      10.8477     -0.03164
     81      10.8925     -0.02162
     82      10.9548     -0.00957
     83      11.1057     -0.00047
     84      11.2297     -0.00001
     85      11.3289     -0.00000
     86      11.4870     -0.00000
     87      11.5235     -0.00000
     88      11.7535     -0.00000
     89      11.9740     -0.00000
     90      12.0938     -0.00000
     91      12.1437     -0.00000
     92      12.2107     -0.00000
     93      12.3429     -0.00000
     94      12.7746     -0.00000
     95      12.8886     -0.00000
     96      13.0615     -0.00000


--------------------------------------------------------------------------------------------------------


 soft charge-density along one line, spin component           1
         0         1         2         3         4         5         6         7         8         9
 total charge-density along one line
 
 soft charge-density along one line, spin component           2
         0         1         2         3         4         5         6         7         8         9
 total charge-density along one line
 
 pseudopotential strength for first ion, spin component:           1
-42.279  -0.000  -0.000   6.483   0.000   0.000   0.000   0.000
 -0.000 -42.275   0.000   0.000   6.481  -0.000   0.000   0.000
 -0.000   0.000 -42.216   0.000  -0.000   6.457   0.000   0.000
  6.483   0.000   0.000   5.936   0.000   0.000  -0.000  -0.000
  0.000   6.481  -0.000   0.000   5.937  -0.000  -0.000  -0.000
  0.000  -0.000   6.457   0.000  -0.000   5.942  -0.000  -0.000
  0.000   0.000   0.000  -0.000  -0.000  -0.000   0.084   0.000
  0.000   0.000   0.000  -0.000  -0.000  -0.000   0.000   0.106
 -0.000   0.000  -0.000   0.000  -0.000   0.000   0.000  -0.000
  0.000   0.000   0.000  -0.000  -0.000  -0.000  -0.000  -0.000
 -0.000   0.000   0.000   0.000  -0.000  -0.000   0.000   0.000
  0.000   0.000   0.000  -0.000  -0.000  -0.000  -0.465   0.000
  0.000   0.000   0.000  -0.000  -0.000  -0.000   0.000  -0.443
 -0.000   0.000  -0.000   0.000  -0.000   0.000   0.000  -0.000
  0.000   0.000   0.000  -0.000  -0.000  -0.000  -0.000  -0.000
 -0.000   0.000   0.000   0.000  -0.000  -0.000   0.000   0.000
 -0.000  -0.000  -0.000  -0.000   0.000  -0.000   0.000   0.000
 -0.000  -0.000  -0.000  -0.000   0.000  -0.000   0.000   0.000
 pseudopotential strength for first ion, spin component:           2
-44.420  -0.000  -0.000   7.385   0.000   0.000   0.000   0.000
 -0.000 -44.399   0.000   0.000   7.376  -0.000  -0.000   0.000
 -0.000   0.000 -44.258   0.000  -0.000   7.320   0.000  -0.000
  7.385   0.000   0.000   5.686   0.000   0.000  -0.000  -0.000
  0.000   7.376  -0.000   0.000   5.688  -0.000   0.000  -0.000
  0.000  -0.000   7.320   0.000  -0.000   5.699  -0.000   0.000
  0.000  -0.000   0.000  -0.000   0.000  -0.000  -1.558   0.000
  0.000   0.000  -0.000  -0.000  -0.000   0.000   0.000  -1.721
 -0.000   0.000  -0.000   0.000  -0.000   0.000   0.000  -0.000
 -0.000   0.000   0.000   0.000  -0.000  -0.000  -0.000  -0.000
 -0.000   0.000   0.000   0.000  -0.000  -0.000   0.000   0.000
  0.000  -0.000   0.000  -0.000   0.000  -0.000  -2.080   0.000
  0.000   0.000  -0.000  -0.000  -0.000   0.000   0.000  -2.240
 -0.000   0.000  -0.000   0.000  -0.000   0.000   0.000  -0.000
 -0.000   0.000   0.000   0.000  -0.000  -0.000  -0.000  -0.000
 -0.000   0.000   0.000   0.000  -0.000  -0.000   0.000   0.000
 -0.000  -0.000  -0.000  -0.000   0.000  -0.000   0.000   0.000
 -0.000  -0.000  -0.000  -0.000   0.000  -0.000   0.000   0.000
 total augmentation occupancy for first ion, spin component:           1
  1.992  -0.000   0.000  -0.025   0.000   0.000   0.000  -0.000   0.000   0.000   0.000   0.000   0.000   0.000   0.000   0.000
 -0.000   1.992   0.000   0.000  -0.025   0.000   0.000   0.000  -0.000   0.000   0.000   0.000   0.000   0.000   0.000  -0.000
  0.000   0.000   1.992   0.000   0.000  -0.024   0.000   0.000   0.000  -0.000   0.000   0.000   0.000   0.000   0.000  -0.000
 -0.025   0.000   0.000   0.190  -0.000   0.000   0.000   0.000  -0.000   0.000   0.000   0.000  -0.000   0.000   0.000   0.000
  0.000  -0.025   0.000  -0.000   0.192   0.000   0.000   0.000   0.000  -0.000  -0.000   0.000   0.000  -0.000   0.000   0.000
  0.000   0.000  -0.024   0.000   0.000   0.183  -0.000   0.000   0.000   0.000   0.000   0.000   0.000   0.000  -0.000   0.000
  0.000   0.000   0.000   0.000   0.000  -0.000   2.689  -0.000   0.000   0.000   0.000  -1.562   0.000   0.000   0.000   0.000
 -0.000   0.000   0.000   0.000   0.000   0.000  -0.000   3.105  -0.000   0.000   0.000   0.000  -2.235   0.000   0.000   0.000
  0.000  -0.000   0.000  -0.000   0.000   0.000   0.000  -0.000   3.323   0.000   0.189   0.000   0.000  -1.999  -0.000  -0.062
  0.000   0.000  -0.000   0.000  -0.000   0.000   0.000   0.000   0.000   2.779  -0.000   0.000   0.000  -0.000  -1.621  -0.000
  0.000   0.000   0.000   0.000  -0.000   0.000   0.000   0.000   0.189  -0.000   3.215   0.000   0.000  -0.063   0.000  -1.961
  0.000   0.000   0.000   0.000   0.000   0.000  -1.562   0.000   0.000   0.000   0.000   1.838  -0.000   0.000   0.000   0.000
  0.000   0.000   0.000  -0.000   0.000   0.000   0.000  -2.235   0.000   0.000   0.000  -0.000   2.590   0.000   0.000   0.000
  0.000   0.000   0.000   0.000  -0.000   0.000   0.000   0.000  -1.999  -0.000  -0.063   0.000   0.000   1.980   0.000  -0.017
  0.000   0.000   0.000   0.000   0.000  -0.000   0.000   0.000  -0.000  -1.621   0.000   0.000   0.000   0.000   1.919  -0.000
  0.000  -0.000  -0.000   0.000   0.000   0.000   0.000   0.000  -0.062  -0.000  -1.961   0.000   0.000  -0.017  -0.000   1.992
  0.000   0.000   0.000   0.000  -0.000   0.000   0.000   0.000  -0.085  -0.000   0.151   0.000   0.000   0.068  -0.000  -0.085
  0.000  -0.000  -0.000   0.000   0.000   0.000   0.000   0.000   0.009   0.000  -0.016   0.000   0.000  -0.006   0.000   0.009
 total augmentation occupancy for first ion, spin component:           2
  0.002  -0.000   0.000   0.008   0.000  -0.000   0.000   0.000   0.000   0.000   0.000   0.000  -0.000   0.000   0.000   0.000
 -0.000   0.002  -0.000   0.000   0.008   0.000   0.000   0.000   0.000  -0.000   0.000   0.000   0.000  -0.000   0.000  -0.000
  0.000  -0.000   0.002   0.000  -0.000   0.009   0.000   0.000  -0.000   0.000   0.000  -0.000   0.000   0.000  -0.000  -0.000
  0.008   0.000   0.000  -0.003   0.000   0.000   0.000   0.000  -0.000   0.000   0.000   0.000  -0.000   0.000   0.000   0.000
  0.000   0.008  -0.000   0.000   0.008   0.000   0.000   0.000   0.000   0.000  -0.000   0.000   0.000   0.000   0.000   0.000
 -0.000   0.000   0.009   0.000   0.000   0.006   0.000  -0.000   0.000  -0.000   0.000  -0.000   0.000   0.000  -0.000   0.000
  0.000   0.000   0.000   0.000   0.000   0.000  -2.036  -0.000   0.000   0.000   0.000   0.860   0.000  -0.000   0.000   0.000
  0.000   0.000   0.000   0.000   0.000  -0.000  -0.000  -2.051   0.000   0.000   0.000   0.000   0.663  -0.000   0.000   0.000
  0.000   0.000  -0.000  -0.000   0.000   0.000   0.000   0.000  -2.506  -0.000  -0.094  -0.000   0.000   1.054   0.000   0.130
  0.000  -0.000   0.000   0.000   0.000  -0.000   0.000   0.000  -0.000  -2.061  -0.000   0.000   0.000  -0.000   0.881  -0.000
  0.000   0.000   0.000   0.000  -0.000   0.000   0.000   0.000  -0.094  -0.000  -2.469   0.000   0.000   0.130   0.000   0.976
  0.000   0.000  -0.000   0.000   0.000  -0.000   0.860   0.000  -0.000   0.000   0.000  -0.156   0.000  -0.000   0.000  -0.000
 -0.000   0.000   0.000  -0.000   0.000   0.000   0.000   0.663   0.000   0.000   0.000   0.000   0.086   0.000   0.000   0.000
  0.000  -0.000   0.000   0.000   0.000   0.000  -0.000  -0.000   1.054  -0.000   0.130  -0.000   0.000  -0.290  -0.000  -0.144
  0.000   0.000  -0.000   0.000   0.000  -0.000   0.000   0.000   0.000   0.881   0.000   0.000   0.000  -0.000  -0.141   0.000
  0.000  -0.000  -0.000   0.000   0.000   0.000   0.000   0.000   0.130  -0.000   0.976  -0.000   0.000  -0.144   0.000  -0.187
  0.000   0.000  -0.000   0.000  -0.000   0.000   0.000   0.000  -0.016   0.000  -0.035   0.000   0.000   0.008  -0.000   0.055
  0.000  -0.000  -0.000   0.000   0.000   0.000   0.000   0.000  -0.004  -0.000   0.009   0.000   0.000   0.001   0.000  -0.003


------------------------ aborting loop because EDIFF is reached ----------------------------------------





 total charge

# of ion       s       p       d       tot
------------------------------------------
    1        0.362   6.352   6.080  12.795
    2        0.363   6.356   6.058  12.777
    3        0.363   6.356   6.059  12.778
    4        0.367   6.362   6.045  12.774
    5        0.367   6.362   6.045  12.773
    6        0.363   6.356   6.059  12.778
    7        0.362   6.352   6.080  12.795
    8        0.363   6.356   6.058  12.777
    9        0.363   6.356   6.059  12.778
   10        0.799   0.752   8.051   9.602
   11        0.799   0.752   8.051   9.602
   12        0.784   0.768   8.048   9.601
--------------------------------------------------
tot          5.654  59.481  78.693 143.828



 magnetization (x)

# of ion       s       p       d       tot
------------------------------------------
    1       -0.005   0.009  -2.464  -2.459
    2        0.009   0.004   2.369   2.381
    3        0.009   0.004   2.368   2.380
    4       -0.015  -0.025  -2.433  -2.473
    5       -0.015  -0.025  -2.434  -2.474
    6        0.003  -0.016   2.588   2.576
    7       -0.005   0.009  -2.464  -2.459
    8        0.009   0.004   2.369   2.381
    9        0.009   0.004   2.368   2.380
   10        0.009   0.020  -0.121  -0.092
   11        0.009   0.020  -0.121  -0.092
   12       -0.036  -0.087   0.338   0.214
--------------------------------------------------
tot         -0.019  -0.080   2.362   2.263
 
    FORLOC:  cpu time      0.0009: real time      0.0009
    FORNL :  cpu time      0.5288: real time      0.5314
    STRESS:  cpu time      4.0370: real time      4.0702
    FORCOR:  cpu time      0.0205: real time      0.0207
    OFIELD:  cpu time      0.0002: real time      0.0002

  FORCE on cell =-STRESS in cart. coord.  units (eV):
  Direction    XX          YY          ZZ          XY          YZ          ZX
  --------------------------------------------------------------------------------------
  Alpha Z  1149.93331  1149.93331  1149.93331
  Ewald   -6131.22420 -6131.22420 -6147.80278    -0.00000    -0.00000    -0.00000
  Hartree  1835.61828  1835.61828  1818.27937    -0.00000    -0.00000    -0.00000
  E(xc)    -944.89713  -944.89713  -944.82601    -0.00000    -0.00000     0.00000
  Local    1161.50192  1161.50192  1203.84019    -0.00000     0.00000    -0.00000
  n-local  -204.94188  -218.42036  -211.36905    15.25466     0.09199     0.07031
  augment  1439.18514  1439.18514  1433.52375     0.00000     0.00000     0.00000
  Kinetic  1717.01116  1698.14610  1704.43883     3.55646     0.26636     0.72595
  Fock        0.00000     0.00000     0.00000     0.00000     0.00000     0.00000
  -------------------------------------------------------------------------------------
  Total       6.01482     6.01482     6.01761     0.00000     0.00000     0.00000
  in kB      65.11359    65.11359    65.14377     0.00000     0.00000     0.00000
  external pressure =       65.12 kB  Pullay stress =        0.00 kB


 VOLUME and BASIS-vectors are now :
 -----------------------------------------------------------------------------
  energy-cutoff  :      520.00
  volume of cell :      148.00
      direct lattice vectors                 reciprocal lattice vectors
     3.654321475  0.000000000  0.000000000     0.273648612  0.000000000  0.000000000
     0.000000000  3.654321475  0.000000000     0.000000000  0.273648612  0.000000000
     0.000000000 -0.000000000 11.082767316     0.000000000  0.000000000  0.090230172

  length of vectors
     3.654321475  3.654321475 11.082767316     0.273648612  0.273648612  0.090230172


 FORCES acting on ions:
    Electron-Ion                     Ewald-Force                    Non-Local-Force
 -----------------------------------------------------------------------------------------------
   0.203E-11 0.117E-10 -.615E+00   -.108E-13 -.328E-13 0.619E+00   0.218E-21 -.133E-20 0.460E-02
   0.204E-11 0.115E-10 -.146E+02   0.161E-13 0.130E-14 0.158E+02   -.276E-18 -.124E-17 -.117E+01
   0.203E-11 0.706E-12 0.152E+02   -.122E-13 -.297E-13 -.164E+02   0.104E-18 -.556E-18 0.117E+01
   0.985E-12 0.625E-11 0.551E+02   0.342E-13 -.511E-14 -.534E+02   -.130E-17 -.878E-18 -.166E+01
   0.990E-12 0.627E-11 -.556E+02   0.107E-13 0.868E-15 0.540E+02   0.100E-18 0.541E-18 0.167E+01
   0.984E-12 0.740E-11 0.596E+00   0.356E-13 0.239E-13 -.594E+00   -.209E-22 0.178E-21 -.829E-02
   0.103E-11 -.171E-13 -.615E+00   -.844E-14 -.851E-15 0.619E+00   -.150E-21 -.297E-21 0.460E-02
   0.101E-11 0.292E-13 -.146E+02   0.163E-13 0.219E-13 0.158E+02   0.496E-18 0.167E-18 -.117E+01
   0.100E-11 -.177E-12 0.152E+02   -.908E-14 -.396E-14 -.164E+02   -.536E-18 0.652E-18 0.117E+01
   0.205E-12 -.933E-13 0.813E+01   -.888E-14 0.276E-13 -.822E+01   0.169E-18 0.616E-18 0.135E+00
   0.200E-12 -.152E-12 -.854E+01   -.400E-13 -.182E-13 0.863E+01   0.135E-18 0.976E-19 -.142E+00
   0.207E-12 -.292E-13 0.397E+00   -.313E-13 0.145E-13 -.398E+00   -.624E-23 -.904E-22 0.529E-02
 -----------------------------------------------------------------------------------------------
   0.128E-10 0.437E-10 0.197E-02   -.777E-14 -.610E-15 -.428E-12   -.110E-17 -.603E-18 -.221E-02
 
 
 POSITION                                       TOTAL-FORCE (eV/Angst)
 -----------------------------------------------------------------------------------
      3.65432      1.82716      1.84688         0.000000     -0.000000      0.008768
      3.65432      1.82716      5.53570         0.000000      0.000000     -0.009646
      3.65432      1.82716      9.24157        -0.000000     -0.000000      0.002159
      1.82716      1.82716      0.04344         0.000000     -0.000000      0.004892
      1.82716      1.82716      3.65061         0.000000      0.000000     -0.000920
      1.82716      1.82716      7.38877        -0.000000      0.000000     -0.005921
      1.82716     -0.00000      1.84688        -0.000000     -0.000000      0.008768
      1.82716     -0.00000      5.53570         0.000000      0.000000     -0.009646
      1.82716     -0.00000      9.24157        -0.000000     -0.000000      0.002159
      3.65432     -0.00000     11.05871        -0.000000      0.000000     -0.001841
      3.65432     -0.00000      3.71805        -0.000000      0.000000     -0.002166
      3.65432     -0.00000      7.38871        -0.000000     -0.000000      0.003393
 -----------------------------------------------------------------------------------
    total drift:                                0.000000      0.000000     -0.000244


--------------------------------------------------------------------------------------------------------



  FREE ENERGIE OF THE ION-ELECTRON SYSTEM (eV)
  ---------------------------------------------------
  free  energy   TOTEN  =       -93.29493879 eV

  energy  without entropy=      -93.30221730  energy(sigma->0) =      -93.29736496
 
 d Force = 0.1786094E-04[ 0.140E-04, 0.217E-04]  d Energy = 0.8250965E-05 0.961E-05
 d Force =-0.3012962E-01[-0.312E-01,-0.290E-01]  d Ewald  =-0.3026908E-01 0.139E-03


--------------------------------------------------------------------------------------------------------


    POTLOK:  cpu time      0.0424: real time      0.0427


--------------------------------------------------------------------------------------------------------


 Steepest descent step on ions:
 trial-energy change:   -0.000008  1 .order   -0.000018   -0.000022   -0.000014
  (g-gl).g = 0.217E-04      g.g   = 0.217E-04  gl.gl    = 0.000E+00
 g(Force)  = 0.217E-04   g(Stress)= 0.266E-07 ortho     = 0.000E+00
 gamma     =   0.00000
 trial     =   1.00000
 opt step  =   2.82790  (harmonic =   2.82790) maximal distance =0.00092450
 next E    =   -93.294961   (d E  =  -0.00003)


--------------------------------------------------------------------------------------------------------


  
 reached required accuracy - stopping structural energy minimisation
     LOOP+:  cpu time     45.7290: real time     46.2891
    4ORBIT:  cpu time      0.0000: real time      0.0000



 total charge

# of ion       s       p       d       tot
------------------------------------------
    1        0.362   6.352   6.080  12.795
    2        0.363   6.356   6.058  12.777
    3        0.363   6.356   6.059  12.778
    4        0.367   6.362   6.045  12.774
    5        0.367   6.362   6.045  12.773
    6        0.363   6.356   6.059  12.778
    7        0.362   6.352   6.080  12.795
    8        0.363   6.356   6.058  12.777
    9        0.363   6.356   6.059  12.778
   10        0.799   0.752   8.051   9.602
   11        0.799   0.752   8.051   9.602
   12        0.784   0.768   8.048   9.601
--------------------------------------------------
tot          5.654  59.481  78.693 143.828



 magnetization (x)

# of ion       s       p       d       tot
------------------------------------------
    1       -0.005   0.009  -2.464  -2.459
    2        0.009   0.004   2.369   2.381
    3        0.009   0.004   2.368   2.380
    4       -0.015  -0.025  -2.433  -2.473
    5       -0.015  -0.025  -2.434  -2.474
    6        0.003  -0.016   2.588   2.576
    7       -0.005   0.009  -2.464  -2.459
    8        0.009   0.004   2.369   2.381
    9        0.009   0.004   2.368   2.380
   10        0.009   0.020  -0.121  -0.092
   11        0.009   0.020  -0.121  -0.092
   12       -0.036  -0.087   0.338   0.214
--------------------------------------------------
tot         -0.019  -0.080   2.362   2.263
 

 total amount of memory used by VASP MPI-rank0   239350. kBytes
=======================================================================

   base      :      30000. kBytes
   nonl-proj :      98316. kBytes
   fftplans  :        888. kBytes
   grid      :       6813. kBytes
   one-center:        373. kBytes
   wavefun   :     102960. kBytes
 
  
  
 General timing and accounting informations for this job:
 ========================================================
  
                  Total CPU time used (sec):      217.256
                            User time (sec):      210.597
                          System time (sec):        6.659
                         Elapsed time (sec):      226.014
  
                   Maximum memory used (kb):      916184.
                   Average memory used (kb):          N/A
  
                          Minor page faults:       142540
                          Major page faults:          239
                 Voluntary context switches:        10508
