       N       E                     dE             d eps       ncg     rms          ort
DAV:   1     0.177305671631E+04    0.17731E+04   -0.91755E+04 10752   0.196E+03
DAV:   2     0.575781747095E+01   -0.17673E+04   -0.16784E+04 10752   0.480E+02
DAV:   3    -0.103082491132E+03   -0.10884E+03   -0.10744E+03 10752   0.128E+02
DAV:   4    -0.104707325259E+03   -0.16248E+01   -0.16245E+01 10752   0.156E+01
DAV:   5    -0.104740399544E+03   -0.33074E-01   -0.33073E-01 10752   0.215E+00
SDA:   6    -0.451790647327E+02    0.59561E+02   -0.33073E-01 10752   0.666E+03 0.000E+00
CGA:   7    -0.625837082002E+02   -0.17405E+02   -0.13129E+02 10752   0.197E+03 0.198E+03
CGA:   8    -0.780199143817E+02   -0.15436E+02   -0.14502E+02 10752   0.356E+03 0.119E+02
CGA:   9    -0.862470278238E+02   -0.82271E+01   -0.87805E+01 10752   0.620E+02-0.108E+02
CGA:  10    -0.874395216871E+02   -0.11925E+01   -0.12501E+01 10752   0.350E+02-0.158E+01
CGA:  11    -0.890245773255E+02   -0.15851E+01   -0.15447E+01 10752   0.338E+02 0.113E+01
CGA:  12    -0.900112895852E+02   -0.98671E+00   -0.86203E+00 10752   0.220E+02 0.518E+01
CGA:  13    -0.913779981612E+02   -0.13667E+01   -0.12794E+01 10752   0.276E+02 0.179E+01
CGA:  14    -0.920023358733E+02   -0.62434E+00   -0.54358E+00 10752   0.475E+01 0.450E+01
CGA:  15    -0.921248468419E+02   -0.12251E+00   -0.13515E+00 10752   0.424E+01-0.464E+00
CGA:  16    -0.924527015432E+02   -0.32785E+00   -0.33123E+00 10752   0.124E+02-0.761E-02
CGA:  17    -0.927249757724E+02   -0.27227E+00   -0.20755E+00 10752   0.438E+01 0.396E+01
CGA:  18    -0.928404218688E+02   -0.11545E+00   -0.11464E+00 10752   0.235E+01 0.384E-01
CGA:  19    -0.929295800080E+02   -0.89158E-01   -0.91290E-01 10752   0.222E+01-0.392E-01
CGA:  20    -0.929685879621E+02   -0.39008E-01   -0.41490E-01 10752   0.666E+00-0.117E+00
CGA:  21    -0.929899625415E+02   -0.21375E-01   -0.21940E-01 10752   0.102E+01-0.124E-01
CGA:  22    -0.930339601451E+02   -0.43998E-01   -0.44653E-01 10752   0.856E+00-0.970E-02
CGA:  23    -0.930509891483E+02   -0.17029E-01   -0.17105E-01 10752   0.318E+00-0.372E-02
CGA:  24    -0.930627082938E+02   -0.11719E-01   -0.11690E-01 10752   0.343E+00 0.633E-03
CGA:  25    -0.930715788912E+02   -0.88706E-02   -0.91689E-02 10752   0.133E+00-0.932E-02
CGA:  26    -0.930757375742E+02   -0.41587E-02   -0.42125E-02 10752   0.159E+00-0.117E-02
CGA:  27    -0.930838265622E+02   -0.80890E-02   -0.81148E-02 10752   0.159E+00-0.144E-03
CGA:  28    -0.930873783244E+02   -0.35518E-02   -0.35977E-02 10752   0.664E-01-0.163E-02
CGA:  29    -0.930909032797E+02   -0.35250E-02   -0.35330E-02 10752   0.127E+00 0.321E-04
CGA:  30    -0.930951847413E+02   -0.42815E-02   -0.43351E-02 10752   0.541E-01-0.933E-03
CGA:  31    -0.930967959952E+02   -0.16113E-02   -0.16273E-02 10752   0.521E-01-0.351E-03
CGA:  32    -0.931000528756E+02   -0.32569E-02   -0.32595E-02 10752   0.635E-01 0.338E-04
CGA:  33    -0.931014964394E+02   -0.14436E-02   -0.14548E-02 10752   0.196E-01-0.437E-03
CGA:  34    -0.931025592348E+02   -0.10628E-02   -0.10625E-02 10752   0.408E-01-0.240E-04
CGA:  35    -0.931044038271E+02   -0.18446E-02   -0.18451E-02 10752   0.221E-01-0.765E-04
CGA:  36    -0.931049667161E+02   -0.56289E-03   -0.56220E-03 10752   0.122E-01-0.384E-04
SDA:  37    -0.931055535621E+02   -0.58685E-03   -0.58555E-03 10752   0.980E-02-0.327E-04
CGA:  38    -0.931057925636E+02   -0.23900E-03   -0.23843E-03 10752   0.183E-02 0.102E-04
CGA:  39    -0.931060568035E+02   -0.26424E-03   -0.26570E-03 10752   0.247E-02-0.169E-04
CGA:  40    -0.931063470713E+02   -0.29027E-03   -0.29206E-03 10752   0.249E-02-0.360E-04
CGA:  41    -0.931064278348E+02   -0.80763E-04   -0.80341E-04 10752   0.874E-03-0.558E-05
CGA:  42    -0.931065303102E+02   -0.10248E-03   -0.10283E-03 10752   0.659E-03-0.639E-05
CGA:  43    -0.931066207687E+02   -0.90458E-04   -0.90471E-04 10752   0.422E-03 0.100E-05
CGA:  44    -0.931066532741E+02   -0.32505E-04   -0.32508E-04 10752   0.893E-03 0.377E-05
CGA:  45    -0.931067224713E+02   -0.69197E-04   -0.69204E-04 10752   0.105E-03 0.919E-05
CGA:  46    -0.931067383038E+02   -0.15833E-04   -0.15329E-04 10752   0.279E-03 0.882E-05
CGA:  47    -0.931067507616E+02   -0.12458E-04   -0.12649E-04 10752   0.566E-04 0.610E-05
CGA:  48    -0.931067562943E+02   -0.55326E-05   -0.56292E-05 10752   0.660E-04-0.418E-05
CGA:  49    -0.931067619203E+02   -0.56260E-05   -0.58324E-05 10752   0.145E-03-0.123E-04
CGA:  50    -0.931067693394E+02   -0.74191E-05   -0.69673E-05 10752   0.135E-04-0.197E-04
CGA:  51    -0.931067707676E+02   -0.14282E-05   -0.16825E-05 10752   0.546E-04-0.300E-05
CGA:  52    -0.931067727308E+02   -0.19632E-05   -0.18016E-05 10752   0.174E-04-0.316E-05
CGA:  53    -0.931067733625E+02   -0.63171E-06   -0.61152E-06 10752   0.124E-04 0.363E-06
   1 F= -.93106773E+02 E0= -.93109036E+02  d E =-.931068E+02  mag=     8.4885
       N       E                     dE             d eps       ncg     rms          ort
SDA:   1    -0.930963464218E+02    0.10426E-01    0.00000E+00 10752   0.297E-01 0.000E+00
CGA:   2    -0.931016107004E+02   -0.52643E-02   -0.52647E-02 10752   0.552E-01-0.774E-05
CGA:   3    -0.931037387658E+02   -0.21281E-02   -0.21256E-02 10752   0.263E-01 0.365E-04
CGA:   4    -0.931052756374E+02   -0.15369E-02   -0.15369E-02 10752   0.848E-02 0.357E-05
CGA:   5    -0.931064802305E+02   -0.12046E-02   -0.12038E-02 10752   0.896E-02 0.110E-04
CGA:   6    -0.931067235334E+02   -0.24330E-03   -0.24330E-03 10752   0.134E-02 0.221E-05
CGA:   7    -0.931068613687E+02   -0.13784E-03   -0.13788E-03 10752   0.881E-03-0.185E-05
CGA:   8    -0.931069777927E+02   -0.11642E-03   -0.11655E-03 10752   0.324E-03-0.233E-05
CGA:   9    -0.931069916660E+02   -0.13873E-04   -0.13865E-04 10752   0.250E-03-0.197E-06
CGA:  10    -0.931070080810E+02   -0.16415E-04   -0.16416E-04 10752   0.146E-03 0.311E-07
CGA:  11    -0.931070235983E+02   -0.15517E-04   -0.15490E-04 10752   0.518E-04 0.106E-05
CGA:  12    -0.931070260352E+02   -0.24369E-05   -0.24405E-05 10752   0.547E-04 0.122E-06
CGA:  13    -0.931070318668E+02   -0.58316E-05   -0.58301E-05 10752   0.961E-05 0.495E-07
CGA:  14    -0.931070329734E+02   -0.11065E-05   -0.11083E-05 10752   0.155E-04-0.210E-07
CGA:  15    -0.931070337083E+02   -0.73490E-06   -0.73218E-06 10752   0.105E-04-0.982E-07
   2 F= -.93107034E+02 E0= -.93109321E+02  d E =-.260346E-03  mag=     8.4888
       N       E                     dE             d eps       ncg     rms          ort
SDA:   1    -0.930647811548E+02    0.42252E-01    0.00000E+00 10752   0.119E+00 0.000E+00
CGA:   2    -0.930805802687E+02   -0.15799E-01   -0.15791E-01 10752   0.353E+00 0.129E-03
CGA:   3    -0.930952062934E+02   -0.14626E-01   -0.14594E-01 10752   0.571E-01 0.382E-03
CGA:   4    -0.931012430780E+02   -0.60368E-02   -0.60336E-02 10752   0.484E-01 0.959E-04
CGA:   5    -0.931038379802E+02   -0.25949E-02   -0.25958E-02 10752   0.441E-01 0.105E-04
CGA:   6    -0.931060542527E+02   -0.22163E-02   -0.22166E-02 10752   0.496E-02 0.117E-04
CGA:   7    -0.931065570970E+02   -0.50284E-03   -0.50296E-03 10752   0.356E-02-0.453E-05
CGA:   8    -0.931070188574E+02   -0.46176E-03   -0.46200E-03 10752   0.254E-02-0.504E-05
CGA:   9    -0.931070851219E+02   -0.66264E-04   -0.66256E-04 10752   0.522E-03-0.604E-06
CGA:  10    -0.931071889223E+02   -0.10380E-03   -0.10358E-03 10752   0.497E-03 0.183E-05
CGA:  11    -0.931072084316E+02   -0.19509E-04   -0.19533E-04 10752   0.298E-03 0.635E-06
CGA:  12    -0.931072283971E+02   -0.19966E-04   -0.19979E-04 10752   0.143E-03 0.855E-06
CGA:  13    -0.931072459969E+02   -0.17600E-04   -0.17586E-04 10752   0.487E-04 0.330E-06
CGA:  14    -0.931072498323E+02   -0.38354E-05   -0.38353E-05 10752   0.672E-04-0.268E-07
CGA:  15    -0.931072529349E+02   -0.31026E-05   -0.30949E-05 10752   0.310E-04-0.181E-06
CGA:  16    -0.931072559382E+02   -0.30033E-05   -0.30110E-05 10752   0.862E-05-0.582E-06
CGA:  17    -0.931072563180E+02   -0.37978E-06   -0.38022E-06 10752   0.895E-05-0.236E-08
CGA:  18    -0.931072573680E+02   -0.10500E-05   -0.10470E-05 10752   0.317E-05 0.745E-07
CGA:  19    -0.931072576053E+02   -0.23728E-06   -0.23658E-06 10752   0.119E-05-0.106E-06
   3 F= -.93107258E+02 E0= -.93109547E+02  d E =-.484243E-03  mag=     8.4923
       N       E                     dE             d eps       ncg     rms          ort
SDA:   1    -0.931065588532E+02    0.69851E-03    0.00000E+00 10752   0.139E-01 0.000E+00
CGA:   2    -0.931068442785E+02   -0.28543E-03   -0.28551E-03 10752   0.113E-02-0.513E-05
CGA:   3    -0.931071191066E+02   -0.27483E-03   -0.27496E-03 10752   0.146E-02-0.880E-06
CGA:   4    -0.931071640533E+02   -0.44947E-04   -0.44983E-04 10752   0.520E-03-0.232E-06
CGA:   5    -0.931072164554E+02   -0.52402E-04   -0.52382E-04 10752   0.355E-03 0.136E-05
CGA:   6    -0.931072490513E+02   -0.32596E-04   -0.32593E-04 10752   0.659E-04 0.977E-06
CGA:   7    -0.931072520385E+02   -0.29872E-05   -0.29816E-05 10752   0.618E-04-0.141E-06
CGA:   8    -0.931072570663E+02   -0.50279E-05   -0.50261E-05 10752   0.309E-04-0.510E-06
CGA:   9    -0.931072595293E+02   -0.24630E-05   -0.24631E-05 10752   0.165E-04-0.108E-06
CGA:  10    -0.931072600573E+02   -0.52796E-06   -0.52669E-06 10752   0.637E-05-0.132E-07
   4 F= -.93107260E+02 E0= -.93109549E+02  d E =-.486695E-03  mag=     8.4926
       N       E                     dE             d eps       ncg     rms          ort
SDA:   1    -0.930920996086E+02    0.15160E-01    0.00000E+00 10752   0.638E-01 0.000E+00
CGA:   2    -0.930946239813E+02   -0.25244E-02   -0.25292E-02 10752   0.613E-01-0.775E-04
CGA:   3    -0.931031992705E+02   -0.85753E-02   -0.85756E-02 10752   0.176E-01-0.443E-05
CGA:   4    -0.931049901869E+02   -0.17909E-02   -0.17909E-02 10752   0.218E-01 0.354E-05
CGA:   5    -0.931060594712E+02   -0.10693E-02   -0.10695E-02 10752   0.153E-01 0.269E-05
CGA:   6    -0.931068956355E+02   -0.83616E-03   -0.83609E-03 10752   0.139E-02 0.375E-05
CGA:   7    -0.931071183426E+02   -0.22271E-03   -0.22296E-03 10752   0.431E-02-0.330E-05
CGA:   8    -0.931072727078E+02   -0.15437E-03   -0.15431E-03 10752   0.654E-03-0.405E-05
CGA:   9    -0.931073261494E+02   -0.53442E-04   -0.53438E-04 10752   0.326E-03-0.943E-06
CGA:  10    -0.931073781458E+02   -0.51996E-04   -0.51946E-04 10752   0.270E-03 0.658E-06
CGA:  11    -0.931073886459E+02   -0.10500E-04   -0.10507E-04 10752   0.163E-03 0.194E-06
CGA:  12    -0.931073999008E+02   -0.11255E-04   -0.11262E-04 10752   0.713E-04 0.415E-06
CGA:  13    -0.931074074048E+02   -0.75041E-05   -0.74889E-05 10752   0.500E-04 0.830E-06
CGA:  14    -0.931074089022E+02   -0.14973E-05   -0.14977E-05 10752   0.152E-04 0.364E-07
CGA:  15    -0.931074115937E+02   -0.26915E-05   -0.27794E-05 10752   0.923E-05-0.867E-06
CGA:  16    -0.931074120419E+02   -0.44827E-06   -0.44444E-06 10752   0.586E-05-0.602E-07
   5 F= -.93107412E+02 E0= -.93109723E+02  d E =-.151985E-03  mag=     8.5010
       N       E                     dE             d eps       ncg     rms          ort
SDA:   1    -0.931006267168E+02    0.67849E-02    0.00000E+00 10752   0.245E-01 0.000E+00
CGA:   2    -0.931020440577E+02   -0.14173E-02   -0.14180E-02 10752   0.355E-01-0.157E-05
CGA:   3    -0.931046971934E+02   -0.26531E-02   -0.26529E-02 10752   0.197E-01-0.993E-05
CGA:   4    -0.931062117873E+02   -0.15146E-02   -0.15146E-02 10752   0.557E-02 0.188E-05
CGA:   5    -0.931066283211E+02   -0.41653E-03   -0.41656E-03 10752   0.989E-02 0.305E-05
CGA:   6    -0.931072074541E+02   -0.57913E-03   -0.57927E-03 10752   0.902E-03 0.575E-05
CGA:   7    -0.931072959293E+02   -0.88475E-04   -0.88500E-04 10752   0.710E-03-0.151E-05
CGA:   8    -0.931073576089E+02   -0.61680E-04   -0.61684E-04 10752   0.121E-02-0.119E-05
CGA:   9    -0.931074073285E+02   -0.49720E-04   -0.49689E-04 10752   0.161E-03-0.697E-06
CGA:  10    -0.931074224451E+02   -0.15117E-04   -0.15120E-04 10752   0.151E-03-0.262E-06
CGA:  11    -0.931074317097E+02   -0.92646E-05   -0.92617E-05 10752   0.187E-03-0.112E-06
CGA:  12    -0.931074432055E+02   -0.11496E-04   -0.11495E-04 10752   0.212E-04-0.805E-08
CGA:  13    -0.931074473772E+02   -0.41717E-05   -0.41096E-05 10752   0.149E-04 0.555E-06
CGA:  14    -0.931074479344E+02   -0.55723E-06   -0.55701E-06 10752   0.868E-05 0.180E-07
   6 F= -.93107448E+02 E0= -.93109770E+02  d E =-.187877E-03  mag=     8.5072
       N       E                     dE             d eps       ncg     rms          ort
SDA:   1    -0.930802069735E+02    0.27240E-01    0.00000E+00 10752   0.103E+00 0.000E+00
CGA:   2    -0.930849068981E+02   -0.46999E-02   -0.47052E-02 10752   0.123E+00-0.572E-04
CGA:   3    -0.930990695885E+02   -0.14163E-01   -0.14165E-01 10752   0.441E-01-0.653E-04
CGA:   4    -0.931027664196E+02   -0.36968E-02   -0.36967E-02 10752   0.231E-01 0.320E-04
CGA:   5    -0.931057214490E+02   -0.29550E-02   -0.29550E-02 10752   0.264E-01 0.201E-05
CGA:   6    -0.931064108971E+02   -0.68945E-03   -0.69021E-03 10752   0.307E-02-0.159E-04
CGA:   7    -0.931068490367E+02   -0.43814E-03   -0.43844E-03 10752   0.313E-02-0.501E-05
CGA:   8    -0.931070924824E+02   -0.24345E-03   -0.24343E-03 10752   0.326E-02-0.254E-05
CGA:   9    -0.931072032264E+02   -0.11074E-03   -0.11065E-03 10752   0.510E-03-0.254E-07
CGA:  10    -0.931072910839E+02   -0.87858E-04   -0.87902E-04 10752   0.559E-03-0.451E-06
CGA:  11    -0.931073241484E+02   -0.33065E-04   -0.33078E-04 10752   0.431E-03 0.407E-06
CGA:  12    -0.931073400486E+02   -0.15900E-04   -0.15918E-04 10752   0.131E-03 0.423E-06
CGA:  13    -0.931073599882E+02   -0.19940E-04   -0.19850E-04 10752   0.292E-04 0.133E-05
CGA:  14    -0.931073629433E+02   -0.29551E-05   -0.29577E-05 10752   0.675E-04-0.173E-06
CGA:  15    -0.931073661965E+02   -0.32532E-05   -0.32402E-05 10752   0.171E-04-0.323E-06
CGA:  16    -0.931073673209E+02   -0.11244E-05   -0.11192E-05 10752   0.550E-05-0.184E-06
CGA:  17    -0.931073678283E+02   -0.50738E-06   -0.50811E-06 10752   0.126E-04 0.404E-07
   7 F= -.93107368E+02 E0= -.93109713E+02  d E =-.107771E-03  mag=     8.5190
       N       E                     dE             d eps       ncg     rms          ort
SDA:   1    -0.930986575420E+02    0.87098E-02    0.00000E+00 10752   0.351E-01 0.000E+00
CGA:   2    -0.931001440634E+02   -0.14865E-02   -0.14850E-02 10752   0.373E-01 0.144E-04
CGA:   3    -0.931047766300E+02   -0.46326E-02   -0.46324E-02 10752   0.132E-01 0.376E-05
CGA:   4    -0.931060400245E+02   -0.12634E-02   -0.12633E-02 10752   0.859E-02 0.168E-05
CGA:   5    -0.931065822590E+02   -0.54223E-03   -0.54215E-03 10752   0.105E-01-0.385E-05
CGA:   6    -0.931071255129E+02   -0.54325E-03   -0.54303E-03 10752   0.134E-02-0.246E-05
CGA:   7    -0.931072363541E+02   -0.11084E-03   -0.11084E-03 10752   0.956E-03 0.207E-05
CGA:   8    -0.931072990851E+02   -0.62731E-04   -0.62747E-04 10752   0.146E-02 0.117E-05
CGA:   9    -0.931073892858E+02   -0.90201E-04   -0.90230E-04 10752   0.136E-03 0.136E-05
CGA:  10    -0.931074147151E+02   -0.25429E-04   -0.25404E-04 10752   0.205E-03 0.253E-06
CGA:  11    -0.931074260579E+02   -0.11343E-04   -0.11340E-04 10752   0.146E-03-0.564E-07
CGA:  12    -0.931074317365E+02   -0.56786E-05   -0.56719E-05 10752   0.322E-04-0.130E-06
CGA:  13    -0.931074366587E+02   -0.49222E-05   -0.49385E-05 10752   0.295E-04-0.222E-06
CGA:  14    -0.931074376086E+02   -0.94994E-06   -0.95245E-06 10752   0.125E-04 0.537E-07
CGA:  15    -0.931074386203E+02   -0.10116E-05   -0.10109E-05 10752   0.507E-05 0.214E-06
CGA:  16    -0.931074393479E+02   -0.72765E-06   -0.71591E-06 10752   0.169E-05 0.232E-06
   8 F= -.93107439E+02 E0= -.93109770E+02  d E =-.179291E-03  mag=     8.5134
       N       E                     dE             d eps       ncg     rms          ort
SDA:   1    -0.931062915718E+02    0.11470E-02    0.00000E+00 10752   0.745E-02 0.000E+00
CGA:   2    -0.931065087834E+02   -0.21721E-03   -0.21708E-03 10752   0.321E-02 0.241E-05
CGA:   3    -0.931071236425E+02   -0.61486E-03   -0.61487E-03 10752   0.177E-02-0.205E-06
CGA:   4    -0.931072640364E+02   -0.14039E-03   -0.14039E-03 10752   0.109E-02-0.120E-06
CGA:   5    -0.931073332905E+02   -0.69254E-04   -0.69233E-04 10752   0.149E-02-0.939E-06
CGA:   6    -0.931074136604E+02   -0.80370E-04   -0.80326E-04 10752   0.102E-03-0.166E-05
CGA:   7    -0.931074244620E+02   -0.10802E-04   -0.10792E-04 10752   0.245E-03 0.396E-06
CGA:   8    -0.931074374236E+02   -0.12962E-04   -0.12981E-04 10752   0.875E-04 0.597E-06
CGA:   9    -0.931074430695E+02   -0.56458E-05   -0.56472E-05 10752   0.169E-04 0.918E-07
CGA:  10    -0.931074462500E+02   -0.31806E-05   -0.31551E-05 10752   0.380E-04 0.238E-06
CGA:  11    -0.931074475444E+02   -0.12944E-05   -0.12992E-05 10752   0.102E-04 0.860E-07
CGA:  12    -0.931074483043E+02   -0.75989E-06   -0.76011E-06 10752   0.389E-05-0.303E-07
   9 F= -.93107448E+02 E0= -.93109775E+02  d E =-.188247E-03  mag=     8.5108
       N       E                     dE             d eps       ncg     rms          ort
SDA:   1    -0.931064987869E+02    0.94876E-03    0.00000E+00 10752   0.323E-01 0.000E+00
CGA:   2    -0.931071209200E+02   -0.62213E-03   -0.62133E-03 10752   0.884E-03 0.367E-04
CGA:   3    -0.931072831442E+02   -0.16222E-03   -0.16226E-03 10752   0.130E-02-0.314E-06
CGA:   4    -0.931073565267E+02   -0.73382E-04   -0.73369E-04 10752   0.106E-02-0.427E-06
CGA:   5    -0.931074015776E+02   -0.45051E-04   -0.45031E-04 10752   0.206E-03-0.639E-06
CGA:   6    -0.931074314922E+02   -0.29915E-04   -0.29993E-04 10752   0.146E-03-0.125E-05
CGA:   7    -0.931074423956E+02   -0.10903E-04   -0.10905E-04 10752   0.325E-04 0.212E-06
CGA:   8    -0.931074439181E+02   -0.15225E-05   -0.15275E-05 10752   0.392E-04 0.132E-06
CGA:   9    -0.931074488743E+02   -0.49562E-05   -0.49272E-05 10752   0.615E-05 0.667E-06
CGA:  10    -0.931074492899E+02   -0.41560E-06   -0.41581E-06 10752   0.112E-04 0.139E-07
  10 F= -.93107449E+02 E0= -.93109773E+02  d E =-.189233E-03  mag=     8.5094
