       N       E                     dE             d eps       ncg     rms          rms(c)
DAV:   1     0.177137322675E+04    0.17714E+04   -0.85184E+04 43008   0.177E+03
DAV:   2     0.571700574876E+01   -0.17657E+04   -0.16771E+04 43008   0.479E+02
DAV:   3    -0.103112406509E+03   -0.10883E+03   -0.10743E+03 50880   0.128E+02
DAV:   4    -0.104739465171E+03   -0.16271E+01   -0.16268E+01 45408   0.156E+01
DAV:   5    -0.104772571430E+03   -0.33106E-01   -0.33106E-01 53120   0.215E+00    0.367E+01
DAV:   6    -0.116081500090E+03   -0.11309E+02   -0.18787E+02 51872   0.688E+01    0.742E+01
DAV:   7    -0.109133734381E+03    0.69478E+01   -0.43884E+02 52640   0.559E+01    0.607E+01
DAV:   8    -0.961199956279E+02    0.13014E+02   -0.11689E+02 51360   0.444E+01    0.299E+01
DAV:   9    -0.105296330458E+03   -0.91763E+01   -0.15129E+02 51968   0.395E+01    0.606E+01
DAV:  10    -0.951919510438E+02    0.10104E+02   -0.14063E+02 52064   0.238E+01    0.314E+01
DAV:  11    -0.920052553612E+02    0.31867E+01   -0.23267E+01 51616   0.174E+01    0.141E+01
DAV:  12    -0.924924124892E+02   -0.48716E+00   -0.28288E+00 51616   0.583E+00    0.982E+00
DAV:  13    -0.928359861845E+02   -0.34357E+00   -0.17793E+00 51872   0.560E+00    0.107E+01
DAV:  14    -0.929678723241E+02   -0.13189E+00   -0.18101E+00 51712   0.548E+00    0.896E+00
DAV:  15    -0.931848617856E+02   -0.21699E+00   -0.21660E+00 52224   0.663E+00    0.781E+00
DAV:  16    -0.930461519066E+02    0.13871E+00   -0.24824E+00 50944   0.635E+00    0.450E+00
DAV:  17    -0.930540351729E+02   -0.78833E-02   -0.48130E-01 50112   0.282E+00    0.362E+00
DAV:  18    -0.931009819187E+02   -0.46947E-01   -0.92813E-02 51648   0.130E+00    0.317E+00
DAV:  19    -0.930967736053E+02    0.42083E-02   -0.12660E-01 51168   0.198E+00    0.152E+00
DAV:  20    -0.931031150661E+02   -0.63415E-02   -0.48254E-02 52224   0.773E-01    0.106E+00
DAV:  21    -0.931067164939E+02   -0.36014E-02   -0.13991E-02 52384   0.571E-01    0.592E-01
DAV:  22    -0.931081439743E+02   -0.14275E-02   -0.48736E-03 51520   0.282E-01    0.395E-01
DAV:  23    -0.931085190076E+02   -0.37503E-03   -0.10472E-03 49984   0.174E-01    0.285E-01
DAV:  24    -0.931085969124E+02   -0.77905E-04   -0.11609E-03 52480   0.190E-01    0.102E-01
DAV:  25    -0.931086643546E+02   -0.67442E-04   -0.25503E-04 51520   0.541E-02    0.659E-02
DAV:  26    -0.931086904254E+02   -0.26071E-04   -0.98126E-05 52608   0.419E-02    0.277E-02
DAV:  27    -0.931086918702E+02   -0.14448E-05   -0.22332E-05 50624   0.193E-02    0.189E-02
DAV:  28    -0.931086947398E+02   -0.28696E-05   -0.39008E-06 37056   0.963E-03    0.141E-02
DAV:  29    -0.931086950923E+02   -0.35256E-06   -0.22251E-06 32256   0.548E-03
   1 F= -.93108695E+02 E0= -.93108695E+02  d E =0.000000E+00  mag=     8.4778
