       N       E                     dE             d eps       ncg     rms          ort
DAV:   1     0.177290832559E+04    0.17729E+04   -0.91738E+04 10752   0.196E+03
DAV:   2     0.610200467240E+01   -0.17668E+04   -0.16778E+04 10752   0.479E+02
DAV:   3    -0.103101373954E+03   -0.10920E+03   -0.10778E+03 10752   0.128E+02
DAV:   4    -0.104740443084E+03   -0.16391E+01   -0.16387E+01 10752   0.157E+01
DAV:   5    -0.104773648059E+03   -0.33205E-01   -0.33204E-01 10752   0.216E+00
SDA:   6    -0.453911940583E+02    0.59382E+02   -0.33204E-01 10752   0.648E+03 0.000E+00
CGA:   7    -0.625226226965E+02   -0.17131E+02   -0.13032E+02 10752   0.200E+03 0.186E+03
CGA:   8    -0.790689361532E+02   -0.16546E+02   -0.15539E+02 10752   0.335E+03 0.123E+02
CGA:   9    -0.864190484835E+02   -0.73501E+01   -0.80899E+01 10752   0.482E+02-0.212E+02
CGA:  10    -0.876342791395E+02   -0.12152E+01   -0.13912E+01 10752   0.433E+02-0.452E+01
CGA:  11    -0.892093093874E+02   -0.15750E+01   -0.14609E+01 10752   0.258E+02 0.328E+01
CGA:  12    -0.902349664194E+02   -0.10257E+01   -0.91645E+00 10752   0.271E+02 0.330E+01
CGA:  13    -0.918336989796E+02   -0.15987E+01   -0.15386E+01 10752   0.109E+02 0.133E+01
CGA:  14    -0.920591736268E+02   -0.22547E+00   -0.24547E+00 10752   0.339E+01-0.842E+00
CGA:  15    -0.925188353838E+02   -0.45966E+00   -0.45965E+00 10752   0.764E+01 0.434E-02
CGA:  16    -0.927540562089E+02   -0.23522E+00   -0.25494E+00 10752   0.369E+01-0.557E+00
CGA:  17    -0.929423385843E+02   -0.18828E+00   -0.19245E+00 10752   0.763E+00-0.460E-01
CGA:  18    -0.929682680664E+02   -0.25929E-01   -0.26419E-01 10752   0.638E+00-0.117E-01
CGA:  19    -0.930323307825E+02   -0.64063E-01   -0.64302E-01 10752   0.462E+00 0.150E-02
CGA:  20    -0.930544245045E+02   -0.22094E-01   -0.22338E-01 10752   0.360E+00-0.422E-02
CGA:  21    -0.930671017418E+02   -0.12677E-01   -0.12920E-01 10752   0.835E-01-0.586E-02
CGA:  22    -0.930799570224E+02   -0.12855E-01   -0.12852E-01 10752   0.209E+00 0.779E-04
CGA:  23    -0.930862862942E+02   -0.63293E-02   -0.64926E-02 10752   0.481E-01-0.442E-02
CGA:  24    -0.930931771888E+02   -0.68909E-02   -0.68742E-02 10752   0.602E-01 0.415E-03
CGA:  25    -0.930970468037E+02   -0.38696E-02   -0.38900E-02 10752   0.717E-01-0.985E-04
CGA:  26    -0.931001661266E+02   -0.31193E-02   -0.31646E-02 10752   0.170E-01-0.667E-03
CGA:  27    -0.931039915011E+02   -0.38254E-02   -0.38349E-02 10752   0.459E-01-0.841E-04
CGA:  28    -0.931053915296E+02   -0.14000E-02   -0.14195E-02 10752   0.935E-02-0.580E-03
CGA:  29    -0.931060281662E+02   -0.63664E-03   -0.63556E-03 10752   0.327E-02-0.145E-04
CGA:  30    -0.931064684756E+02   -0.44031E-03   -0.44091E-03 10752   0.109E-01-0.248E-04
CGA:  31    -0.931069579832E+02   -0.48951E-03   -0.48865E-03 10752   0.119E-02-0.499E-04
CGA:  32    -0.931070657719E+02   -0.10779E-03   -0.10752E-03 10752   0.100E-02-0.992E-05
CGA:  33    -0.931071444249E+02   -0.78653E-04   -0.78361E-04 10752   0.211E-02-0.834E-05
CGA:  34    -0.931072982332E+02   -0.15381E-03   -0.15339E-03 10752   0.439E-03-0.171E-04
CGA:  35    -0.931073398198E+02   -0.41587E-04   -0.41600E-04 10752   0.685E-03 0.294E-05
CGA:  36    -0.931073702035E+02   -0.30384E-04   -0.30635E-04 10752   0.349E-03 0.480E-05
SDA:  37    -0.931074007789E+02   -0.30575E-04   -0.30669E-04 10752   0.121E-03 0.759E-05
CGA:  38    -0.931074102104E+02   -0.94315E-05   -0.94238E-05 10752   0.167E-03 0.692E-06
CGA:  39    -0.931074183737E+02   -0.81632E-05   -0.81461E-05 10752   0.898E-04 0.714E-06
CGA:  40    -0.931074264867E+02   -0.81130E-05   -0.81125E-05 10752   0.448E-04 0.818E-06
CGA:  41    -0.931074331500E+02   -0.66633E-05   -0.66404E-05 10752   0.118E-03 0.131E-05
CGA:  42    -0.931074376024E+02   -0.44524E-05   -0.44673E-05 10752   0.119E-04 0.891E-06
CGA:  43    -0.931074396180E+02   -0.20156E-05   -0.21597E-05 10752   0.290E-04-0.954E-06
CGA:  44    -0.931074422586E+02   -0.26406E-05   -0.26369E-05 10752   0.553E-04-0.206E-05
CGA:  45    -0.931074446081E+02   -0.23495E-05   -0.22371E-05 10752   0.505E-05-0.204E-05
CGA:  46    -0.931074449816E+02   -0.37350E-06   -0.36737E-06 10752   0.379E-05 0.375E-06
   1 F= -.93107445E+02 E0= -.93109753E+02  d E =-.931074E+02  mag=     8.5108
       N       E                     dE             d eps       ncg     rms          ort
SDA:   1    -0.931065397740E+02    0.90483E-03    0.00000E+00 10752   0.117E-01 0.000E+00
CGA:   2    -0.931068054436E+02   -0.26567E-03   -0.26572E-03 10752   0.202E-02-0.463E-05
CGA:   3    -0.931070740298E+02   -0.26859E-03   -0.26870E-03 10752   0.258E-02-0.270E-05
CGA:   4    -0.931072999597E+02   -0.22593E-03   -0.22592E-03 10752   0.192E-02-0.115E-05
CGA:   5    -0.931073571016E+02   -0.57142E-04   -0.57124E-04 10752   0.405E-03 0.792E-07
CGA:   6    -0.931074259634E+02   -0.68862E-04   -0.68811E-04 10752   0.229E-03 0.664E-06
CGA:   7    -0.931074438641E+02   -0.17901E-04   -0.17915E-04 10752   0.986E-04 0.932E-06
CGA:   8    -0.931074483744E+02   -0.45102E-05   -0.45204E-05 10752   0.977E-04 0.200E-06
CGA:   9    -0.931074587930E+02   -0.10419E-04   -0.10415E-04 10752   0.408E-04 0.223E-06
CGA:  10    -0.931074615355E+02   -0.27425E-05   -0.27410E-05 10752   0.327E-04-0.991E-07
CGA:  11    -0.931074629457E+02   -0.14102E-05   -0.14044E-05 10752   0.196E-04-0.102E-06
CGA:  12    -0.931074651313E+02   -0.21856E-05   -0.21930E-05 10752   0.399E-05-0.275E-06
CGA:  13    -0.931074658096E+02   -0.67828E-06   -0.68362E-06 10752   0.891E-05-0.706E-07
   2 F= -.93107466E+02 E0= -.93109805E+02  d E =-.208280E-04  mag=     8.5110
       N       E                     dE             d eps       ncg     rms          ort
SDA:   1    -0.931006195874E+02    0.68455E-02    0.00000E+00 10752   0.301E-01 0.000E+00
CGA:   2    -0.931018795235E+02   -0.12599E-02   -0.12633E-02 10752   0.270E-01-0.484E-04
CGA:   3    -0.931043784116E+02   -0.24989E-02   -0.24990E-02 10752   0.212E-01-0.141E-04
CGA:   4    -0.931061801129E+02   -0.18017E-02   -0.18017E-02 10752   0.903E-02 0.599E-06
CGA:   5    -0.931065013433E+02   -0.32123E-03   -0.32120E-03 10752   0.508E-02 0.459E-06
CGA:   6    -0.931070564951E+02   -0.55515E-03   -0.55522E-03 10752   0.247E-02-0.244E-05
CGA:   7    -0.931072640559E+02   -0.20756E-03   -0.20756E-03 10752   0.698E-03-0.260E-06
CGA:   8    -0.931073093490E+02   -0.45293E-04   -0.45291E-04 10752   0.118E-02-0.176E-06
CGA:   9    -0.931074040850E+02   -0.94736E-04   -0.94735E-04 10752   0.303E-03 0.590E-07
CGA:  10    -0.931074266195E+02   -0.22535E-04   -0.22536E-04 10752   0.283E-03 0.142E-06
CGA:  11    -0.931074400925E+02   -0.13473E-04   -0.13474E-04 10752   0.213E-03 0.392E-07
CGA:  12    -0.931074575457E+02   -0.17453E-04   -0.17453E-04 10752   0.371E-04-0.158E-06
CGA:  13    -0.931074640678E+02   -0.65221E-05   -0.64771E-05 10752   0.738E-04 0.479E-06
CGA:  14    -0.931074662269E+02   -0.21591E-05   -0.21674E-05 10752   0.826E-05 0.135E-06
CGA:  15    -0.931074672667E+02   -0.10398E-05   -0.10375E-05 10752   0.101E-04 0.379E-07
CGA:  16    -0.931074677924E+02   -0.52566E-06   -0.52673E-06 10752   0.936E-05 0.568E-07
   3 F= -.93107468E+02 E0= -.93109855E+02  d E =-.228108E-04  mag=     8.5156
       N       E                     dE             d eps       ncg     rms          ort
SDA:   1    -0.931060300409E+02    0.14372E-02    0.00000E+00 10752   0.694E-02 0.000E+00
CGA:   2    -0.931063012204E+02   -0.27118E-03   -0.27086E-03 10752   0.555E-02 0.481E-05
CGA:   3    -0.931068007638E+02   -0.49954E-03   -0.49953E-03 10752   0.462E-02 0.454E-06
CGA:   4    -0.931072313222E+02   -0.43056E-03   -0.43059E-03 10752   0.127E-02-0.259E-05
CGA:   5    -0.931073018661E+02   -0.70544E-04   -0.70550E-04 10752   0.148E-02 0.357E-07
CGA:   6    -0.931074017884E+02   -0.99922E-04   -0.99941E-04 10752   0.536E-03 0.129E-05
CGA:   7    -0.931074493552E+02   -0.47567E-04   -0.47561E-04 10752   0.118E-03 0.811E-06
CGA:   8    -0.931074671951E+02   -0.17840E-04   -0.17831E-04 10752   0.339E-03 0.102E-06
CGA:   9    -0.931074794951E+02   -0.12300E-04   -0.12299E-04 10752   0.436E-04-0.435E-07
CGA:  10    -0.931074852555E+02   -0.57604E-05   -0.57638E-05 10752   0.643E-04-0.719E-07
CGA:  11    -0.931074879875E+02   -0.27319E-05   -0.27290E-05 10752   0.360E-04-0.689E-07
CGA:  12    -0.931074899694E+02   -0.19819E-05   -0.19797E-05 10752   0.854E-05-0.599E-07
CGA:  13    -0.931074916328E+02   -0.16634E-05   -0.16846E-05 10752   0.499E-05-0.193E-06
CGA:  14    -0.931074917936E+02   -0.16080E-06   -0.16062E-06 10752   0.227E-05 0.273E-09
   4 F= -.93107492E+02 E0= -.93109860E+02  d E =-.468120E-04  mag=     8.5138
       N       E                     dE             d eps       ncg     rms          ort
SDA:   1    -0.931068319359E+02    0.65970E-03    0.00000E+00 10752   0.273E-02 0.000E+00
CGA:   2    -0.931070238992E+02   -0.19196E-03   -0.19194E-03 10752   0.234E-02 0.171E-06
CGA:   3    -0.931071470690E+02   -0.12317E-03   -0.12318E-03 10752   0.226E-02-0.504E-07
CGA:   4    -0.931073589927E+02   -0.21192E-03   -0.21194E-03 10752   0.591E-03-0.159E-05
CGA:   5    -0.931074009229E+02   -0.41930E-04   -0.41933E-04 10752   0.574E-03 0.173E-06
CGA:   6    -0.931074249603E+02   -0.24037E-04   -0.24053E-04 10752   0.308E-03 0.367E-06
CGA:   7    -0.931074549502E+02   -0.29990E-04   -0.29979E-04 10752   0.447E-04 0.548E-06
CGA:   8    -0.931074663814E+02   -0.11431E-04   -0.11400E-04 10752   0.457E-04 0.164E-06
CGA:   9    -0.931074681539E+02   -0.17725E-05   -0.17707E-05 10752   0.306E-04-0.290E-07
CGA:  10    -0.931074703593E+02   -0.22054E-05   -0.22049E-05 10752   0.173E-04-0.314E-07
CGA:  11    -0.931074722248E+02   -0.18654E-05   -0.18678E-05 10752   0.454E-05-0.583E-07
CGA:  12    -0.931074727058E+02   -0.48099E-06   -0.48321E-06 10752   0.913E-05-0.910E-07
   5 F= -.93107473E+02 E0= -.93109827E+02  d E =-.277242E-04  mag=     8.5122
