 vasp.6.4.3 19Mar24 (build Mar 26 2024 14:05:37) complex                        
  
 executed on             LinuxIFC date 2024.12.16  21:39:36
 running  128 mpi-ranks, on    1 nodes
 distrk:  each k-point on   32 cores,    4 groups
 distr:  one band on NCORE=   1 cores,   32 groups


--------------------------------------------------------------------------------------------------------


 INCAR:
   ALGO = Normal
   EDIFF = 1e-06
   EDIFFG = -0.01
   ENCUT = 520
   GGA = Pe
   IBRION = -1
   ISIF = 4
   ISMEAR = -5
   ISPIN = 2
   KPAR = 4
   LCHARG = True
   LORBIT = 11
   LREAL = False
   LWAVE = False
   MAGMOM = 1*-2.689 1*2.714 1*2.717 1*-2.723 1*2.694 1*2.841 1*-2.689 1*2.714 1*2.717 1*-0.047 1*0.047 1*0.275
   NELM = 200
   NSW = 0
   PREC = Accurate
   SIGMA = 0.2

 POTCAR:    PAW_PBE Fe_pv 02Aug2007               
 POTCAR:    PAW_PBE Pt 04Feb2005                  
 -----------------------------------------------------------------------------
|                                                                             |
|           W    W    AA    RRRRR   N    N  II  N    N   GGGG   !!!           |
|           W    W   A  A   R    R  NN   N  II  NN   N  G    G  !!!           |
|           W    W  A    A  R    R  N N  N  II  N N  N  G       !!!           |
|           W WW W  AAAAAA  RRRRR   N  N N  II  N  N N  G  GGG   !            |
|           WW  WW  A    A  R   R   N   NN  II  N   NN  G    G                |
|           W    W  A    A  R    R  N    N  II  N    N   GGGG   !!!           |
|                                                                             |
|     For optimal performance we recommend to set                             |
|       NCORE = 2 up to number-of-cores-per-socket                            |
|     NCORE specifies how many cores store one orbital (NPAR=cpu/NCORE).      |
|     This setting can greatly improve the performance of VASP for DFT.       |
|     The default, NCORE=1 might be grossly inefficient on modern             |
|     multi-core architectures or massively parallel machines. Do your        |
|     own testing! More info at https://www.vasp.at/wiki/index.php/NCORE      |
|     Unfortunately you need to use the default for GW and RPA                |
|     calculations (for HF NCORE is supported but not extensively tested      |
|     yet).                                                                   |
|                                                                             |
 -----------------------------------------------------------------------------

 POTCAR:    PAW_PBE Fe_pv 02Aug2007               
   SHA256 =  5d22e414b1f82158bf2c7ecb8b97b28fd0923e48cadc1c3bf74d524558f5dd32 Fe_pv/POTCAR          
   COPYR  = (c) Copyright 02Aug2007 Georg Kresse                                                    
   COPYR  = This file is part of the software VASP. Any use, copying, and all other rights are regul
   COPYR  = If you do not have a valid VASP license, you may not use, copy or distribute this file. 
   VRHFIN =Fe:  3pd7s1                                                                              
   LEXCH  = PE                                                                                      
   EATOM  =  2457.4239 eV,  180.6156 Ry                                                             
                                                                                                    
   TITEL  = PAW_PBE Fe_pv 02Aug2007                                                                 
   LULTRA =        F    use ultrasoft PP ?                                                          
   IUNSCR =        1    unscreen: 0-lin 1-nonlin 2-no                                               
   RPACOR =    1.750    partial core radius                                                         
   POMASS =   55.847; ZVAL   =   14.000    mass and valenz                                          
   RCORE  =    2.200    outmost cutoff radius                                                       
   RWIGS  =    2.200; RWIGS  =    1.164    wigner-seitz radius (au A)                               
   ENMAX  =  293.238; ENMIN  =  219.928 eV                                                          
   ICORE  =        3    local potential                                                             
   LCOR   =        T    correct aug charges                                                         
   LPAW   =        T    paw PP                                                                      
   EAUG   =  578.342                                                                                
   DEXC   =    0.000                                                                                
   RMAX   =    2.249    core radius for proj-oper                                                   
   RAUG   =    1.300    factor for augmentation sphere                                              
   RDEP   =    2.296    radius for radial grids                                                     
   RDEPT  =    1.766    core radius for aug-charge                                                  
                                                                                                    
   Atomic configuration                                                                             
    8 entries                                                                                       
     n  l   j            E        occ.                                                              
     1  0  0.50     -6993.8440   2.0000                                                             
     2  0  0.50      -814.6047   2.0000                                                             
     2  1  1.50      -693.3689   6.0000                                                             
     3  0  0.50       -89.4732   2.0000                                                             
     3  1  1.50       -55.6373   6.0000                                                             
     3  2  2.50        -3.8151   7.0000                                                             
     4  0  0.50        -4.2551   1.0000                                                             
     4  3  2.50        -1.3606   0.0000                                                             
   Description                                                                                      
     l       E           TYP  RCUT    TYP  RCUT                                                     
     1    -55.6372668     23  2.000                                                                 
     1     -5.4423304     23  2.000                                                                 
     2     -3.8151096     23  2.200                                                                 
     2     -5.1756922     23  2.200                                                                 
     0     -4.2550951     23  2.200                                                                 
     0     27.2116520     23  2.200                                                                 
     3     -1.3605826     23  2.200                                                                 
  local pseudopotential read in
  partial core-charges read in
  partial kinetic energy density read in
  atomic valenz-charges read in
  non local Contribution for L=           1  read in
    real space projection operators read in
  non local Contribution for L=           1  read in
    real space projection operators read in
  non local Contribution for L=           2  read in
    real space projection operators read in
  non local Contribution for L=           2  read in
    real space projection operators read in
  non local Contribution for L=           0  read in
    real space projection operators read in
  non local Contribution for L=           0  read in
    real space projection operators read in
    PAW grid and wavefunctions read in
 
   number of l-projection  operators is LMAX  =           6
   number of lm-projection operators is LMMAX =          18
 
 POTCAR:    PAW_PBE Pt 04Feb2005                  
   SHA256 =  3ed90460adef76debcff1cfb73ee1349b515b1a3db03439735b44de3a8db7dc8 Pt/POTCAR             
   COPYR  = (c) Copyright 04Feb2005 Georg Kresse                                                    
   COPYR  = This file is part of the software VASP. Any use, copying, and all other rights are regul
   COPYR  = If you do not have a valid VASP license, you may not use, copy or distribute this file. 
   VRHFIN =Pt: s1d9                                                                                 
   LEXCH  = PE                                                                                      
   EATOM  =   729.1176 eV,   53.5886 Ry                                                             
                                                                                                    
   TITEL  = PAW_PBE Pt 04Feb2005                                                                    
   LULTRA =        F    use ultrasoft PP ?                                                          
   IUNSCR =        1    unscreen: 0-lin 1-nonlin 2-no                                               
   RPACOR =    2.330    partial core radius                                                         
   POMASS =  195.080; ZVAL   =   10.000    mass and valenz                                          
   RCORE  =    2.600    outmost cutoff radius                                                       
   RWIGS  =    2.750; RWIGS  =    1.455    wigner-seitz radius (au A)                               
   ENMAX  =  230.283; ENMIN  =  172.712 eV                                                          
   ICORE  =        3    local potential                                                             
   LCOR   =        T    correct aug charges                                                         
   LPAW   =        T    paw PP                                                                      
   EAUG   =  358.966                                                                                
   DEXC   =    0.000                                                                                
   RMAX   =    2.658    core radius for proj-oper                                                   
   RAUG   =    1.300    factor for augmentation sphere                                              
   RDEP   =    2.761    radius for radial grids                                                     
   RDEPT  =    2.203    core radius for aug-charge                                                  
                                                                                                    
   Atomic configuration                                                                             
   16 entries                                                                                       
     n  l   j            E        occ.                                                              
     1  0  0.50    -78401.1885   2.0000                                                             
     2  0  0.50    -13770.7750   2.0000                                                             
     2  1  1.50    -11931.0468   6.0000                                                             
     3  0  0.50     -3234.7234   2.0000                                                             
     3  1  1.50     -2699.2216   6.0000                                                             
     3  2  2.50     -2119.5714  10.0000                                                             
     4  0  0.50      -695.1528   2.0000                                                             
     4  1  1.50      -519.6034   6.0000                                                             
     4  2  2.50      -306.6786  10.0000                                                             
     4  3  3.50       -70.1041  14.0000                                                             
     5  0  0.50      -101.7747   2.0000                                                             
     5  1  1.50       -55.9873   6.0000                                                             
     5  2  2.50        -6.1423   9.0000                                                             
     6  0  0.50        -5.6573   1.0000                                                             
     6  1  1.50        -6.8029   0.0000                                                             
     5  3  2.50        -1.3606   0.0000                                                             
   Description                                                                                      
     l       E           TYP  RCUT    TYP  RCUT                                                     
     2     -6.1423404     23  2.500                                                                 
     2     -7.5029230     23  2.500                                                                 
     0     -5.6573207     23  2.500                                                                 
     0      0.7416693     23  2.500                                                                 
     1     -2.7211652     23  2.600                                                                 
     1     20.4087390     23  2.600                                                                 
     3     -1.3605826     23  2.500                                                                 
  local pseudopotential read in
  partial core-charges read in
  partial kinetic energy density read in
  atomic valenz-charges read in
  non local Contribution for L=           2  read in
    real space projection operators read in
  non local Contribution for L=           2  read in
    real space projection operators read in
  non local Contribution for L=           0  read in
    real space projection operators read in
  non local Contribution for L=           0  read in
    real space projection operators read in
  non local Contribution for L=           1  read in
    real space projection operators read in
  non local Contribution for L=           1  read in
    real space projection operators read in
    PAW grid and wavefunctions read in
 
   number of l-projection  operators is LMAX  =           6
   number of lm-projection operators is LMMAX =          18
 
  PAW_PBE Fe_pv 02Aug2007               :
 energy of atom  1       EATOM=-2457.4239
 kinetic energy error for atom=    0.0062 (will be added to EATOM!!)
  PAW_PBE Pt 04Feb2005                  :
 energy of atom  2       EATOM= -729.1176
 kinetic energy error for atom=    0.0032 (will be added to EATOM!!)
 
 
 POSCAR: Fe9 Pt3
  positions in direct lattice
  velocities in cartesian coordinates


 exchange-correlation table for PE
   RHO(1)=    0.500       N(1)  =     2000
   RHO(2)=  100.500       N(2)  =     4000
 


--------------------------------------------------------------------------------------------------------


 ion  position               nearest neighbor table
   1  0.000  0.500  0.167-   4 2.63   4 2.63  11 2.65  11 2.65   7 2.66   7 2.66   7 2.66   7 2.66
                            10 2.71  10 2.71   5 2.75   5 2.75
   2  0.000  0.500  0.499-   5 2.62   5 2.62   8 2.66   8 2.66   8 2.66   8 2.66   6 2.66   6 2.66
                            12 2.68  12 2.68  11 2.72  11 2.72
   3  0.000  0.500  0.833-   9 2.66   9 2.66   9 2.66   9 2.66  10 2.67  10 2.67  12 2.69  12 2.69
                             6 2.71   6 2.71   4 2.75   4 2.75
   4  0.500  0.500  0.007-   1 2.63   7 2.63   7 2.63   1 2.63  10 2.67  10 2.67  10 2.67  10 2.67
                             9 2.75   3 2.75   9 2.75   3 2.75
   5  0.500  0.500  0.341-   2 2.62   8 2.62   8 2.62   2 2.62  11 2.67  11 2.67  11 2.67  11 2.67
                             1 2.75   7 2.75   1 2.75   7 2.75
   6  0.500  0.500  0.663-  12 2.66  12 2.66  12 2.66  12 2.66   8 2.66   2 2.66   2 2.66   8 2.66
                             9 2.71   3 2.71   9 2.71   3 2.71
   7  0.500  0.000  0.167-   4 2.63   4 2.63  11 2.65  11 2.65   1 2.66   1 2.66   1 2.66   1 2.66
                            10 2.71  10 2.71   5 2.75   5 2.75
   8  0.500  0.000  0.499-   5 2.62   5 2.62   2 2.66   2 2.66   2 2.66   2 2.66   6 2.66   6 2.66
                            12 2.68  12 2.68  11 2.72  11 2.72
   9  0.500  0.000  0.833-   3 2.66   3 2.66   3 2.66   3 2.66  10 2.67  10 2.67  12 2.69  12 2.69
                             6 2.71   6 2.71   4 2.75   4 2.75
  10  0.000  0.000  0.997-   4 2.67   4 2.67   4 2.67   4 2.67   3 2.67   9 2.67   9 2.67   3 2.67
                             1 2.71   7 2.71   7 2.71   1 2.71
  11  0.000  0.000  0.329-   1 2.65   7 2.65   1 2.65   7 2.65   5 2.67   5 2.67   5 2.67   5 2.67
                             2 2.72   2 2.72   8 2.72   8 2.72
  12  0.000  0.000  0.666-   6 2.66   6 2.66   6 2.66   6 2.66   2 2.68   8 2.68   8 2.68   2 2.68
                             3 2.69   3 2.69   9 2.69   9 2.69
 
  LATTYP: Found a simple tetragonal cell.
 ALAT       =     3.7671700800
 C/A-ratio  =     3.0488911520
  
  Lattice vectors:
  
 A1 = (   3.7671700800,   0.0000000000,   0.0000000000)
 A2 = (   0.0000000000,   3.7671700800,   0.0000000000)
 A3 = (   0.0000000000,   0.0000000000,  11.4856915248)


Analysis of symmetry for initial positions (statically):
=====================================================================
 Subroutine PRICEL returns:
 Original cell was already a primitive cell.
 

 Routine SETGRP: Setting up the symmetry group for a 
 simple tetragonal supercell.


 Subroutine GETGRP returns: Found  8 space group operations
 (whereof  8 operations were pure point group operations)
 out of a pool of 16 trial point group operations.


The static configuration has the point symmetry C_4v.


Analysis of symmetry for dynamics (positions and initial velocities):
=====================================================================
 Subroutine PRICEL returns:
 Original cell was already a primitive cell.
 

 Routine SETGRP: Setting up the symmetry group for a 
 simple tetragonal supercell.


 Subroutine GETGRP returns: Found  8 space group operations
 (whereof  8 operations were pure point group operations)
 out of a pool of 16 trial point group operations.


The dynamic configuration has the point symmetry C_4v.


Analysis of structural, dynamic, and magnetic symmetry:
=====================================================================
 Subroutine PRICEL returns:
 Original cell was already a primitive cell.
 

 Routine SETGRP: Setting up the symmetry group for a 
 simple tetragonal supercell.


 Subroutine GETGRP returns: Found  8 space group operations
 (whereof  8 operations were pure point group operations)
 out of a pool of 16 trial point group operations.


The overall configuration has the point symmetry C_4v.


 Subroutine INISYM returns: Found  8 space group operations
 (whereof  8 operations are pure point group operations),
 and found     1 'primitive' translations


----------------------------------------------------------------------------------------

                                     Primitive cell                                     

  volume of cell :     163.0000

  direct lattice vectors                    reciprocal lattice vectors
     3.767170080  0.000000000  0.000000000     0.265451248  0.000000000  0.000000000
     0.000000000  3.767170080  0.000000000     0.000000000  0.265451248  0.000000000
     0.000000000  0.000000000 11.485691525     0.000000000  0.000000000  0.087064849

  length of vectors
     3.767170080  3.767170080 11.485691525     0.265451248  0.265451248  0.087064849

  position of ions in fractional coordinates (direct lattice)
     0.000000000  0.500000000  0.166637471
     0.000000000  0.500000000  0.499321711
     0.000000000  0.500000000  0.832525229
     0.500000000  0.500000000  0.006509217
     0.500000000  0.500000000  0.341095475
     0.500000000  0.500000000  0.663400589
     0.500000000  0.000000000  0.166637471
     0.500000000  0.000000000  0.499321711
     0.500000000  0.000000000  0.832525229
     0.000000000  0.000000000  0.997446190
     0.000000000  0.000000000  0.328784515
     0.000000000  0.000000000  0.665795191

  ion indices of the primitive-cell ions
   primitive index   ion index
                 1           1
                 2           2
                 3           3
                 4           4
                 5           5
                 6           6
                 7           7
                 8           8
                 9           9
                10          10
                11          11
                12          12

----------------------------------------------------------------------------------------

 
 
 KPOINTS: pymatgen with grid density = 8800 / numb

Automatic generation of k-mesh.
 Grid dimensions read from file:
 generate k-points for:   13   13    4

 Generating k-lattice:

  Cartesian coordinates                     Fractional coordinates (reciprocal lattice)
     0.020419327  0.000000000  0.000000000     0.076923077  0.000000000  0.000000000
     0.000000000  0.020419327  0.000000000     0.000000000  0.076923077  0.000000000
     0.000000000  0.000000000  0.021766212     0.000000000  0.000000000  0.250000000

  Length of vectors
     0.020419327  0.020419327  0.021766212

  Shift w.r.t. Gamma in fractional coordinates (k-lattice)
     0.000000000  0.000000000  0.000000000

 TETIRR: Found   1010 inequivalent tetrahedra from     4056
 
 Subroutine IBZKPT returns following result:
 ===========================================
 
 Found     84 irreducible k-points:
 
 Following reciprocal coordinates:
            Coordinates               Weight
  0.000000  0.000000  0.000000      1.000000
  0.076923  0.000000  0.000000      4.000000
  0.153846  0.000000  0.000000      4.000000
  0.230769  0.000000  0.000000      4.000000
  0.307692  0.000000  0.000000      4.000000
  0.384615  0.000000  0.000000      4.000000
  0.461538  0.000000  0.000000      4.000000
  0.076923  0.076923  0.000000      4.000000
  0.153846  0.076923  0.000000      8.000000
  0.230769  0.076923  0.000000      8.000000
  0.307692  0.076923  0.000000      8.000000
  0.384615  0.076923  0.000000      8.000000
  0.461538  0.076923  0.000000      8.000000
  0.153846  0.153846  0.000000      4.000000
  0.230769  0.153846  0.000000      8.000000
  0.307692  0.153846  0.000000      8.000000
  0.384615  0.153846  0.000000      8.000000
  0.461538  0.153846  0.000000      8.000000
  0.230769  0.230769  0.000000      4.000000
  0.307692  0.230769  0.000000      8.000000
  0.384615  0.230769  0.000000      8.000000
  0.461538  0.230769  0.000000      8.000000
  0.307692  0.307692  0.000000      4.000000
  0.384615  0.307692  0.000000      8.000000
  0.461538  0.307692  0.000000      8.000000
  0.384615  0.384615  0.000000      4.000000
  0.461538  0.384615  0.000000      8.000000
  0.461538  0.461538  0.000000      4.000000
  0.000000  0.000000  0.250000      2.000000
  0.076923  0.000000  0.250000      8.000000
  0.153846  0.000000  0.250000      8.000000
  0.230769  0.000000  0.250000      8.000000
  0.307692  0.000000  0.250000      8.000000
  0.384615  0.000000  0.250000      8.000000
  0.461538  0.000000  0.250000      8.000000
  0.076923  0.076923  0.250000      8.000000
  0.153846  0.076923  0.250000     16.000000
  0.230769  0.076923  0.250000     16.000000
  0.307692  0.076923  0.250000     16.000000
  0.384615  0.076923  0.250000     16.000000
  0.461538  0.076923  0.250000     16.000000
  0.153846  0.153846  0.250000      8.000000
  0.230769  0.153846  0.250000     16.000000
  0.307692  0.153846  0.250000     16.000000
  0.384615  0.153846  0.250000     16.000000
  0.461538  0.153846  0.250000     16.000000
  0.230769  0.230769  0.250000      8.000000
  0.307692  0.230769  0.250000     16.000000
  0.384615  0.230769  0.250000     16.000000
  0.461538  0.230769  0.250000     16.000000
  0.307692  0.307692  0.250000      8.000000
  0.384615  0.307692  0.250000     16.000000
  0.461538  0.307692  0.250000     16.000000
  0.384615  0.384615  0.250000      8.000000
  0.461538  0.384615  0.250000     16.000000
  0.461538  0.461538  0.250000      8.000000
  0.000000  0.000000  0.500000      1.000000
  0.076923  0.000000  0.500000      4.000000
  0.153846  0.000000  0.500000      4.000000
  0.230769  0.000000  0.500000      4.000000
  0.307692  0.000000  0.500000      4.000000
  0.384615  0.000000  0.500000      4.000000
  0.461538  0.000000  0.500000      4.000000
  0.076923  0.076923  0.500000      4.000000
  0.153846  0.076923  0.500000      8.000000
  0.230769  0.076923  0.500000      8.000000
  0.307692  0.076923  0.500000      8.000000
  0.384615  0.076923  0.500000      8.000000
  0.461538  0.076923  0.500000      8.000000
  0.153846  0.153846  0.500000      4.000000
  0.230769  0.153846  0.500000      8.000000
  0.307692  0.153846  0.500000      8.000000
  0.384615  0.153846  0.500000      8.000000
  0.461538  0.153846  0.500000      8.000000
  0.230769  0.230769  0.500000      4.000000
  0.307692  0.230769  0.500000      8.000000
  0.384615  0.230769  0.500000      8.000000
  0.461538  0.230769  0.500000      8.000000
  0.307692  0.307692  0.500000      4.000000
  0.384615  0.307692  0.500000      8.000000
  0.461538  0.307692  0.500000      8.000000
  0.384615  0.384615  0.500000      4.000000
  0.461538  0.384615  0.500000      8.000000
  0.461538  0.461538  0.500000      4.000000
 
 Following cartesian coordinates:
            Coordinates               Weight
  0.000000  0.000000  0.000000      1.000000
  0.020419  0.000000  0.000000      4.000000
  0.040839  0.000000  0.000000      4.000000
  0.061258  0.000000  0.000000      4.000000
  0.081677  0.000000  0.000000      4.000000
  0.102097  0.000000  0.000000      4.000000
  0.122516  0.000000  0.000000      4.000000
  0.020419  0.020419  0.000000      4.000000
  0.040839  0.020419  0.000000      8.000000
  0.061258  0.020419  0.000000      8.000000
  0.081677  0.020419  0.000000      8.000000
  0.102097  0.020419  0.000000      8.000000
  0.122516  0.020419  0.000000      8.000000
  0.040839  0.040839  0.000000      4.000000
  0.061258  0.040839  0.000000      8.000000
  0.081677  0.040839  0.000000      8.000000
  0.102097  0.040839  0.000000      8.000000
  0.122516  0.040839  0.000000      8.000000
  0.061258  0.061258  0.000000      4.000000
  0.081677  0.061258  0.000000      8.000000
  0.102097  0.061258  0.000000      8.000000
  0.122516  0.061258  0.000000      8.000000
  0.081677  0.081677  0.000000      4.000000
  0.102097  0.081677  0.000000      8.000000
  0.122516  0.081677  0.000000      8.000000
  0.102097  0.102097  0.000000      4.000000
  0.122516  0.102097  0.000000      8.000000
  0.122516  0.122516  0.000000      4.000000
  0.000000  0.000000  0.021766      2.000000
  0.020419  0.000000  0.021766      8.000000
  0.040839  0.000000  0.021766      8.000000
  0.061258  0.000000  0.021766      8.000000
  0.081677  0.000000  0.021766      8.000000
  0.102097  0.000000  0.021766      8.000000
  0.122516  0.000000  0.021766      8.000000
  0.020419  0.020419  0.021766      8.000000
  0.040839  0.020419  0.021766     16.000000
  0.061258  0.020419  0.021766     16.000000
  0.081677  0.020419  0.021766     16.000000
  0.102097  0.020419  0.021766     16.000000
  0.122516  0.020419  0.021766     16.000000
  0.040839  0.040839  0.021766      8.000000
  0.061258  0.040839  0.021766     16.000000
  0.081677  0.040839  0.021766     16.000000
  0.102097  0.040839  0.021766     16.000000
  0.122516  0.040839  0.021766     16.000000
  0.061258  0.061258  0.021766      8.000000
  0.081677  0.061258  0.021766     16.000000
  0.102097  0.061258  0.021766     16.000000
  0.122516  0.061258  0.021766     16.000000
  0.081677  0.081677  0.021766      8.000000
  0.102097  0.081677  0.021766     16.000000
  0.122516  0.081677  0.021766     16.000000
  0.102097  0.102097  0.021766      8.000000
  0.122516  0.102097  0.021766     16.000000
  0.122516  0.122516  0.021766      8.000000
  0.000000  0.000000  0.043532      1.000000
  0.020419  0.000000  0.043532      4.000000
  0.040839  0.000000  0.043532      4.000000
  0.061258  0.000000  0.043532      4.000000
  0.081677  0.000000  0.043532      4.000000
  0.102097  0.000000  0.043532      4.000000
  0.122516  0.000000  0.043532      4.000000
  0.020419  0.020419  0.043532      4.000000
  0.040839  0.020419  0.043532      8.000000
  0.061258  0.020419  0.043532      8.000000
  0.081677  0.020419  0.043532      8.000000
  0.102097  0.020419  0.043532      8.000000
  0.122516  0.020419  0.043532      8.000000
  0.040839  0.040839  0.043532      4.000000
  0.061258  0.040839  0.043532      8.000000
  0.081677  0.040839  0.043532      8.000000
  0.102097  0.040839  0.043532      8.000000
  0.122516  0.040839  0.043532      8.000000
  0.061258  0.061258  0.043532      4.000000
  0.081677  0.061258  0.043532      8.000000
  0.102097  0.061258  0.043532      8.000000
  0.122516  0.061258  0.043532      8.000000
  0.081677  0.081677  0.043532      4.000000
  0.102097  0.081677  0.043532      8.000000
  0.122516  0.081677  0.043532      8.000000
  0.102097  0.102097  0.043532      4.000000
  0.122516  0.102097  0.043532      8.000000
  0.122516  0.122516  0.043532      4.000000
 


--------------------------------------------------------------------------------------------------------




 Dimension of arrays:
   k-points           NKPTS =     84   k-points in BZ     NKDIM =     84   number of bands    NBANDS=    128
   number of dos      NEDOS =    301   number of ions     NIONS =     12
   non local maximal  LDIM  =      6   non local SUM 2l+1 LMDIM =     18
   total plane-waves  NPLWV =  70560
   max r-space proj   IRMAX =      1   max aug-charges    IRDMAX=  26415
   dimension x,y,z NGX =    28 NGY =   28 NGZ =   90
   dimension x,y,z NGXF=    56 NGYF=   56 NGZF=  180
   support grid    NGXF=    56 NGYF=   56 NGZF=  180
   ions per type =               9   3
   NGX,Y,Z   is equivalent  to a cutoff of  12.36, 12.36, 13.03 a.u.
   NGXF,Y,Z  is equivalent  to a cutoff of  24.71, 24.71, 26.05 a.u.

 SYSTEM =  unknown system                          
 POSCAR =  Fe9 Pt3                                 

 Startparameter for this run:
   NWRITE =      2    write-flag & timer
   PREC   = accura    normal or accurate (medium, high low for compatibility)
   ISTART =      0    job   : 0-new  1-cont  2-samecut
   ICHARG =      2    charge: 1-file 2-atom 10-const
   ISPIN  =      2    spin polarized calculation?
   LNONCOLLINEAR =      F non collinear calculations
   LSORBIT =      F    spin-orbit coupling
   INIWAV =      1    electr: 0-lowe 1-rand  2-diag
   LASPH  =      F    aspherical Exc in radial PAW
 Electronic Relaxation 1
   ENCUT  =  520.0 eV  38.22 Ry    6.18 a.u.   7.00  7.00 21.36*2*pi/ulx,y,z
   ENINI  =  520.0     initial cutoff
   ENAUG  =  578.3 eV  augmentation charge cutoff
   NELM   =    200;   NELMIN=  2; NELMDL=  0     # of ELM steps 
   EDIFF  = 0.1E-05   stopping-criterion for ELM
   LREAL  =      F    real-space projection
   NLSPLINE    = F    spline interpolate recip. space projectors
   LCOMPAT=      F    compatible to vasp.4.4
   GGA_COMPAT  = T    GGA compatible to vasp.4.4-vasp.4.6
   LMAXPAW     = -100 max onsite density
   LMAXMIX     =    2 max onsite mixed and CHGCAR
   VOSKOWN=      0    Vosko Wilk Nusair interpolation
   ROPT   =    0.00000   0.00000
 Ionic relaxation
   EDIFFG = -.1E-01   stopping-criterion for IOM
   NSW    =      0    number of steps for IOM
   NBLOCK =      1;   KBLOCK =      1    inner block; outer block 
   IBRION =     -1    ionic relax: 0-MD 1-quasi-New 2-CG
   NFREE  =      0    steps in history (QN), initial steepest desc. (CG)
   ISIF   =      4    stress and relaxation
   IWAVPR =     10    prediction:  0-non 1-charg 2-wave 3-comb
   ISYM   =      2    0-nonsym 1-usesym 2-fastsym
   LCORR  =      T    Harris-Foulkes like correction to forces

   POTIM  = 0.5000    time-step for ionic-motion
   TEIN   =    0.0    initial temperature
   TEBEG  =    0.0;   TEEND  =   0.0 temperature during run
   SMASS  =  -3.00    Nose mass-parameter (am)
   estimated Nose-frequenzy (Omega)   =  0.10E-29 period in steps = 0.13E+47 mass=  -0.324E-27a.u.
   SCALEE = 1.0000    scale energy and forces
   NPACO  =    256;   APACO  = 10.0  distance and # of slots for P.C.
   PSTRESS=    0.0 pullay stress

  Mass of Ions in am
   POMASS =  55.85195.08
  Ionic Valenz
   ZVAL   =  14.00 10.00
  Atomic Wigner-Seitz radii
   RWIGS  =  -1.00 -1.00
  virtual crystal weights 
   VCA    =   1.00  1.00
   NELECT =     156.0000    total number of electrons
   NUPDOWN=      -1.0000    fix difference up-down

 DOS related values:
   EMIN   =  10.00;   EMAX   =-10.00  energy-range for DOS
   EFERMI =   0.00;   METHOD = LEGACY      
   ISMEAR =    -5;   SIGMA  =   0.20  broadening in eV -4-tet -1-fermi 0-gaus

 Electronic relaxation 2 (details)
   IALGO  =     38    algorithm
   LDIAG  =      T    sub-space diagonalisation (order eigenvalues)
   LSUBROT=      F    optimize rotation matrix (better conditioning)
   TURBO    =      0    0=normal 1=particle mesh
   IRESTART =      0    0=no restart 2=restart with 2 vectors
   NREBOOT  =      0    no. of reboots
   NMIN     =      0    reboot dimension
   EREF     =   0.00    reference energy to select bands
   IMIX   =      4    mixing-type and parameters
     AMIX     =   0.40;   BMIX     =  1.00
     AMIX_MAG =   1.60;   BMIX_MAG =  1.00
     AMIN     =   0.10
     WC   =   100.;   INIMIX=   1;  MIXPRE=   1;  MAXMIX= -45

 Intra band minimization:
   WEIMIN = 0.0000     energy-eigenvalue tresh-hold
   EBREAK =  0.20E-08  absolut break condition
   DEPER  =   0.30     relativ break condition  

   TIME   =   0.40     timestep for ELM

  volume/ion in A,a.u.               =      13.58        91.66
  Fermi-wavevector in a.u.,A,eV,Ry     =   1.613320  3.048733 35.413260  2.602801
  Thomas-Fermi vector in A             =   2.708408
 
 Write flags
   LWAVE        =      F    write WAVECAR
   LDOWNSAMPLE  =      F    k-point downsampling of WAVECAR
   LCHARG       =      T    write CHGCAR
   LVTOT        =      F    write LOCPOT, total local potential
   LVHAR        =      F    write LOCPOT, Hartree potential only
   WRT_POTENTIAL= false  ! write potential to hdf5 file
   LELF         =      F    write electronic localiz. function (ELF)
   LORBIT       =     11    0 simple, 1 ext, 2 COOP (PROOUT), +10 PAW based schemes


 Dipole corrections
   LMONO      =      F    monopole corrections only (constant potential shift)
   LDIPOL     =      F    correct potential (dipole corrections)
   IDIPOL     =      0    1-x, 2-y, 3-z, 4-all directions 
   EPSILON    =  1.0000000 bulk dielectric constant
   LVACPOTAV  =      F  vacuum potentials using an averaging scheme for the charge density
   VACPOTFLAT =  0.1000000 required flatness to determine vacuum potential
 Exchange correlation treatment:
   GGA     = PE    functional components
   XC_C    = 1    coefficients multiplying the functional components
   LIBXC   =     F    Libxc                    
   VOSKOWN =     0    Vosko Wilk Nusair interpolation
   LHFCALC =     F    Hartree Fock is set to
   LHFONE  =     F    Hartree Fock one center treatment
   AEXX    =    0.0000 exact exchange contribution

 Parameters of functionals:
   PE:
     No parameter
 
 Van der Waals corrections
   IVDW    =     0    specifies the selected vdW correction

 Linear response parameters
   LEPSILON=     F    determine dielectric tensor
   LRPA    =     F    only Hartree local field effects (RPA)
   LNABLA  =     F    use nabla operator in PAW spheres
   LVEL    =     F    velocity operator in full k-point grid
   CSHIFT  =0.1000    complex shift for real part using Kramers Kronig
   OMEGAMAX=  -1.0    maximum frequency
   DEG_THRESHOLD= 0.2000000E-02 threshold for treating states as degnerate
   RTIME   =   -0.100 relaxation time in fs
  (WPLASMAI=    0.000 imaginary part of plasma frequency in eV, 0.658/RTIME)
   DFIELD  = 0.0000000 0.0000000 0.0000000 field for delta impulse in time
 
  Optional k-point grid parameters
   LKPOINTS_OPT  =     F    use optional k-point grid
   KPOINTS_OPT_MODE=     1    mode for optional k-point grid
 
 Orbital magnetization related:
   ORBITALMAG=     F  switch on orbital magnetization
   LCHIMAG   =     F  perturbation theory with respect to B field
   DQ        =  0.001000  dq finite difference perturbation B field
   LLRAUG    =     F  two centre corrections for induced B field
   LBONE     =     F  B-component reconstruction in AE one-centre
   LVGVCALC  =     T  calculate vGv susceptibility
   LVGVAPPL  =     F  apply vGv susceptibility instead of pGv for G=0

 Random number generation:
   RANDOM_GENERATOR = DEFAULT
   PCG_SEED         = not used


--------------------------------------------------------------------------------------------------------


 Static calculation
 charge density and potential will be updated during run
 spin polarized calculation
 Variant of blocked Davidson
 Davidson routine will perform the subspace rotation
 perform sub-space diagonalisation
    after iterative eigenvector-optimisation
 modified Broyden-mixing scheme, WC =      100.0
 initial mixing is a Kerker type mixing with AMIX =  0.4000 and BMIX =      1.0000
 Hartree-type preconditioning will be used
 using additional bands           50
 reciprocal scheme for non local part
 use partial core corrections
 calculate Harris-corrections to forces 
   (improved forces if not selfconsistent)
 use gradient corrections 
 use of overlap-Matrix (Vanderbilt PP)
 Fermi weights with tetrahedron method with Bloechl corrections


--------------------------------------------------------------------------------------------------------


  energy-cutoff  :      520.00
  volume of cell :      163.00
      direct lattice vectors                 reciprocal lattice vectors
     3.767170080  0.000000000  0.000000000     0.265451248  0.000000000  0.000000000
     0.000000000  3.767170080  0.000000000     0.000000000  0.265451248  0.000000000
     0.000000000  0.000000000 11.485691525     0.000000000  0.000000000  0.087064849

  length of vectors
     3.767170080  3.767170080 11.485691525     0.265451248  0.265451248  0.087064849


 
 k-points in units of 2pi/SCALE and weight: pymatgen with grid density = 8800 / numb
   0.00000000  0.00000000  0.00000000       0.001
   0.02041933  0.00000000  0.00000000       0.006
   0.04083865  0.00000000  0.00000000       0.006
   0.06125798  0.00000000  0.00000000       0.006
   0.08167731  0.00000000  0.00000000       0.006
   0.10209663  0.00000000  0.00000000       0.006
   0.12251596  0.00000000  0.00000000       0.006
   0.02041933  0.02041933  0.00000000       0.006
   0.04083865  0.02041933  0.00000000       0.012
   0.06125798  0.02041933  0.00000000       0.012
   0.08167731  0.02041933  0.00000000       0.012
   0.10209663  0.02041933  0.00000000       0.012
   0.12251596  0.02041933  0.00000000       0.012
   0.04083865  0.04083865  0.00000000       0.006
   0.06125798  0.04083865  0.00000000       0.012
   0.08167731  0.04083865  0.00000000       0.012
   0.10209663  0.04083865  0.00000000       0.012
   0.12251596  0.04083865  0.00000000       0.012
   0.06125798  0.06125798  0.00000000       0.006
   0.08167731  0.06125798  0.00000000       0.012
   0.10209663  0.06125798  0.00000000       0.012
   0.12251596  0.06125798  0.00000000       0.012
   0.08167731  0.08167731  0.00000000       0.006
   0.10209663  0.08167731  0.00000000       0.012
   0.12251596  0.08167731  0.00000000       0.012
   0.10209663  0.10209663  0.00000000       0.006
   0.12251596  0.10209663  0.00000000       0.012
   0.12251596  0.12251596  0.00000000       0.006
   0.00000000  0.00000000  0.02176621       0.003
   0.02041933  0.00000000  0.02176621       0.012
   0.04083865  0.00000000  0.02176621       0.012
   0.06125798  0.00000000  0.02176621       0.012
   0.08167731  0.00000000  0.02176621       0.012
   0.10209663  0.00000000  0.02176621       0.012
   0.12251596  0.00000000  0.02176621       0.012
   0.02041933  0.02041933  0.02176621       0.012
   0.04083865  0.02041933  0.02176621       0.024
   0.06125798  0.02041933  0.02176621       0.024
   0.08167731  0.02041933  0.02176621       0.024
   0.10209663  0.02041933  0.02176621       0.024
   0.12251596  0.02041933  0.02176621       0.024
   0.04083865  0.04083865  0.02176621       0.012
   0.06125798  0.04083865  0.02176621       0.024
   0.08167731  0.04083865  0.02176621       0.024
   0.10209663  0.04083865  0.02176621       0.024
   0.12251596  0.04083865  0.02176621       0.024
   0.06125798  0.06125798  0.02176621       0.012
   0.08167731  0.06125798  0.02176621       0.024
   0.10209663  0.06125798  0.02176621       0.024
   0.12251596  0.06125798  0.02176621       0.024
   0.08167731  0.08167731  0.02176621       0.012
   0.10209663  0.08167731  0.02176621       0.024
   0.12251596  0.08167731  0.02176621       0.024
   0.10209663  0.10209663  0.02176621       0.012
   0.12251596  0.10209663  0.02176621       0.024
   0.12251596  0.12251596  0.02176621       0.012
   0.00000000  0.00000000  0.04353242       0.001
   0.02041933  0.00000000  0.04353242       0.006
   0.04083865  0.00000000  0.04353242       0.006
   0.06125798  0.00000000  0.04353242       0.006
   0.08167731  0.00000000  0.04353242       0.006
   0.10209663  0.00000000  0.04353242       0.006
   0.12251596  0.00000000  0.04353242       0.006
   0.02041933  0.02041933  0.04353242       0.006
   0.04083865  0.02041933  0.04353242       0.012
   0.06125798  0.02041933  0.04353242       0.012
   0.08167731  0.02041933  0.04353242       0.012
   0.10209663  0.02041933  0.04353242       0.012
   0.12251596  0.02041933  0.04353242       0.012
   0.04083865  0.04083865  0.04353242       0.006
   0.06125798  0.04083865  0.04353242       0.012
   0.08167731  0.04083865  0.04353242       0.012
   0.10209663  0.04083865  0.04353242       0.012
   0.12251596  0.04083865  0.04353242       0.012
   0.06125798  0.06125798  0.04353242       0.006
   0.08167731  0.06125798  0.04353242       0.012
   0.10209663  0.06125798  0.04353242       0.012
   0.12251596  0.06125798  0.04353242       0.012
   0.08167731  0.08167731  0.04353242       0.006
   0.10209663  0.08167731  0.04353242       0.012
   0.12251596  0.08167731  0.04353242       0.012
   0.10209663  0.10209663  0.04353242       0.006
   0.12251596  0.10209663  0.04353242       0.012
   0.12251596  0.12251596  0.04353242       0.006
 
 k-points in reciprocal lattice and weights: pymatgen with grid density = 8800 / numb
   0.00000000  0.00000000  0.00000000       0.001
   0.07692308  0.00000000  0.00000000       0.006
   0.15384615  0.00000000  0.00000000       0.006
   0.23076923  0.00000000  0.00000000       0.006
   0.30769231  0.00000000  0.00000000       0.006
   0.38461538  0.00000000  0.00000000       0.006
   0.46153846  0.00000000  0.00000000       0.006
   0.07692308  0.07692308  0.00000000       0.006
   0.15384615  0.07692308  0.00000000       0.012
   0.23076923  0.07692308  0.00000000       0.012
   0.30769231  0.07692308  0.00000000       0.012
   0.38461538  0.07692308  0.00000000       0.012
   0.46153846  0.07692308  0.00000000       0.012
   0.15384615  0.15384615  0.00000000       0.006
   0.23076923  0.15384615  0.00000000       0.012
   0.30769231  0.15384615  0.00000000       0.012
   0.38461538  0.15384615  0.00000000       0.012
   0.46153846  0.15384615  0.00000000       0.012
   0.23076923  0.23076923  0.00000000       0.006
   0.30769231  0.23076923  0.00000000       0.012
   0.38461538  0.23076923  0.00000000       0.012
   0.46153846  0.23076923  0.00000000       0.012
   0.30769231  0.30769231  0.00000000       0.006
   0.38461538  0.30769231  0.00000000       0.012
   0.46153846  0.30769231  0.00000000       0.012
   0.38461538  0.38461538  0.00000000       0.006
   0.46153846  0.38461538  0.00000000       0.012
   0.46153846  0.46153846  0.00000000       0.006
   0.00000000  0.00000000  0.25000000       0.003
   0.07692308  0.00000000  0.25000000       0.012
   0.15384615  0.00000000  0.25000000       0.012
   0.23076923  0.00000000  0.25000000       0.012
   0.30769231  0.00000000  0.25000000       0.012
   0.38461538  0.00000000  0.25000000       0.012
   0.46153846  0.00000000  0.25000000       0.012
   0.07692308  0.07692308  0.25000000       0.012
   0.15384615  0.07692308  0.25000000       0.024
   0.23076923  0.07692308  0.25000000       0.024
   0.30769231  0.07692308  0.25000000       0.024
   0.38461538  0.07692308  0.25000000       0.024
   0.46153846  0.07692308  0.25000000       0.024
   0.15384615  0.15384615  0.25000000       0.012
   0.23076923  0.15384615  0.25000000       0.024
   0.30769231  0.15384615  0.25000000       0.024
   0.38461538  0.15384615  0.25000000       0.024
   0.46153846  0.15384615  0.25000000       0.024
   0.23076923  0.23076923  0.25000000       0.012
   0.30769231  0.23076923  0.25000000       0.024
   0.38461538  0.23076923  0.25000000       0.024
   0.46153846  0.23076923  0.25000000       0.024
   0.30769231  0.30769231  0.25000000       0.012
   0.38461538  0.30769231  0.25000000       0.024
   0.46153846  0.30769231  0.25000000       0.024
   0.38461538  0.38461538  0.25000000       0.012
   0.46153846  0.38461538  0.25000000       0.024
   0.46153846  0.46153846  0.25000000       0.012
   0.00000000  0.00000000  0.50000000       0.001
   0.07692308  0.00000000  0.50000000       0.006
   0.15384615  0.00000000  0.50000000       0.006
   0.23076923  0.00000000  0.50000000       0.006
   0.30769231  0.00000000  0.50000000       0.006
   0.38461538  0.00000000  0.50000000       0.006
   0.46153846  0.00000000  0.50000000       0.006
   0.07692308  0.07692308  0.50000000       0.006
   0.15384615  0.07692308  0.50000000       0.012
   0.23076923  0.07692308  0.50000000       0.012
   0.30769231  0.07692308  0.50000000       0.012
   0.38461538  0.07692308  0.50000000       0.012
   0.46153846  0.07692308  0.50000000       0.012
   0.15384615  0.15384615  0.50000000       0.006
   0.23076923  0.15384615  0.50000000       0.012
   0.30769231  0.15384615  0.50000000       0.012
   0.38461538  0.15384615  0.50000000       0.012
   0.46153846  0.15384615  0.50000000       0.012
   0.23076923  0.23076923  0.50000000       0.006
   0.30769231  0.23076923  0.50000000       0.012
   0.38461538  0.23076923  0.50000000       0.012
   0.46153846  0.23076923  0.50000000       0.012
   0.30769231  0.30769231  0.50000000       0.006
   0.38461538  0.30769231  0.50000000       0.012
   0.46153846  0.30769231  0.50000000       0.012
   0.38461538  0.38461538  0.50000000       0.006
   0.46153846  0.38461538  0.50000000       0.012
   0.46153846  0.46153846  0.50000000       0.006
 
 position of ions in fractional coordinates (direct lattice) 
   0.00000000  0.50000000  0.16663747
   0.00000000  0.50000000  0.49932171
   0.00000000  0.50000000  0.83252523
   0.50000000  0.50000000  0.00650922
   0.50000000  0.50000000  0.34109548
   0.50000000  0.50000000  0.66340059
   0.50000000  0.00000000  0.16663747
   0.50000000  0.00000000  0.49932171
   0.50000000  0.00000000  0.83252523
   0.00000000  0.00000000  0.99744619
   0.00000000  0.00000000  0.32878451
   0.00000000  0.00000000  0.66579519
 
 position of ions in cartesian coordinates  (Angst):
   0.00000000  1.88358504  1.91394659
   0.00000000  1.88358504  5.73505514
   0.00000000  1.88358504  9.56212797
   1.88358504  1.88358504  0.07476286
   1.88358504  1.88358504  3.91771741
   1.88358504  1.88358504  7.61961453
   1.88358504  0.00000000  1.91394659
   1.88358504  0.00000000  5.73505514
   1.88358504  0.00000000  9.56212797
   0.00000000  0.00000000 11.45635925
   0.00000000  0.00000000  3.77631751
   0.00000000  0.00000000  7.64711819
 


--------------------------------------------------------------------------------------------------------


 k-point     1 :   0.0000 0.0000 0.0000  plane waves:    4343
 k-point     2 :   0.0769 0.0000 0.0000  plane waves:    4362
 k-point     3 :   0.1538 0.0000 0.0000  plane waves:    4382
 k-point     4 :   0.2308 0.0000 0.0000  plane waves:    4360
 k-point     5 :   0.3077 0.0000 0.0000  plane waves:    4374
 k-point     6 :   0.3846 0.0000 0.0000  plane waves:    4382
 k-point     7 :   0.4615 0.0000 0.0000  plane waves:    4380
 k-point     8 :   0.0769 0.0769 0.0000  plane waves:    4360
 k-point     9 :   0.1538 0.0769 0.0000  plane waves:    4387
 k-point    10 :   0.2308 0.0769 0.0000  plane waves:    4381
 k-point    11 :   0.3077 0.0769 0.0000  plane waves:    4377
 k-point    12 :   0.3846 0.0769 0.0000  plane waves:    4397
 k-point    13 :   0.4615 0.0769 0.0000  plane waves:    4401
 k-point    14 :   0.1538 0.1538 0.0000  plane waves:    4376
 k-point    15 :   0.2308 0.1538 0.0000  plane waves:    4386
 k-point    16 :   0.3077 0.1538 0.0000  plane waves:    4383
 k-point    17 :   0.3846 0.1538 0.0000  plane waves:    4404
 k-point    18 :   0.4615 0.1538 0.0000  plane waves:    4407
 k-point    19 :   0.2308 0.2308 0.0000  plane waves:    4390
 k-point    20 :   0.3077 0.2308 0.0000  plane waves:    4386
 k-point    21 :   0.3846 0.2308 0.0000  plane waves:    4396
 k-point    22 :   0.4615 0.2308 0.0000  plane waves:    4412
 k-point    23 :   0.3077 0.3077 0.0000  plane waves:    4410
 k-point    24 :   0.3846 0.3077 0.0000  plane waves:    4404
 k-point    25 :   0.4615 0.3077 0.0000  plane waves:    4414
 k-point    26 :   0.3846 0.3846 0.0000  plane waves:    4384
 k-point    27 :   0.4615 0.3846 0.0000  plane waves:    4397
 k-point    28 :   0.4615 0.4615 0.0000  plane waves:    4382
 k-point    29 :   0.0000 0.0000 0.2500  plane waves:    4335
 k-point    30 :   0.0769 0.0000 0.2500  plane waves:    4345
 k-point    31 :   0.1538 0.0000 0.2500  plane waves:    4361
 k-point    32 :   0.2308 0.0000 0.2500  plane waves:    4369
 k-point    33 :   0.3077 0.0000 0.2500  plane waves:    4377
 k-point    34 :   0.3846 0.0000 0.2500  plane waves:    4384
 k-point    35 :   0.4615 0.0000 0.2500  plane waves:    4390
 k-point    36 :   0.0769 0.0769 0.2500  plane waves:    4355
 k-point    37 :   0.1538 0.0769 0.2500  plane waves:    4364
 k-point    38 :   0.2308 0.0769 0.2500  plane waves:    4368
 k-point    39 :   0.3077 0.0769 0.2500  plane waves:    4380
 k-point    40 :   0.3846 0.0769 0.2500  plane waves:    4397
 k-point    41 :   0.4615 0.0769 0.2500  plane waves:    4400
 k-point    42 :   0.1538 0.1538 0.2500  plane waves:    4382
 k-point    43 :   0.2308 0.1538 0.2500  plane waves:    4383
 k-point    44 :   0.3077 0.1538 0.2500  plane waves:    4390
 k-point    45 :   0.3846 0.1538 0.2500  plane waves:    4398
 k-point    46 :   0.4615 0.1538 0.2500  plane waves:    4403
 k-point    47 :   0.2308 0.2308 0.2500  plane waves:    4381
 k-point    48 :   0.3077 0.2308 0.2500  plane waves:    4401
 k-point    49 :   0.3846 0.2308 0.2500  plane waves:    4402
 k-point    50 :   0.4615 0.2308 0.2500  plane waves:    4408
 k-point    51 :   0.3077 0.3077 0.2500  plane waves:    4403
 k-point    52 :   0.3846 0.3077 0.2500  plane waves:    4404
 k-point    53 :   0.4615 0.3077 0.2500  plane waves:    4399
 k-point    54 :   0.3846 0.3846 0.2500  plane waves:    4396
 k-point    55 :   0.4615 0.3846 0.2500  plane waves:    4394
 k-point    56 :   0.4615 0.4615 0.2500  plane waves:    4404
 k-point    57 :   0.0000 0.0000 0.5000  plane waves:    4346
 k-point    58 :   0.0769 0.0000 0.5000  plane waves:    4336
 k-point    59 :   0.1538 0.0000 0.5000  plane waves:    4344
 k-point    60 :   0.2308 0.0000 0.5000  plane waves:    4362
 k-point    61 :   0.3077 0.0000 0.5000  plane waves:    4374
 k-point    62 :   0.3846 0.0000 0.5000  plane waves:    4370
 k-point    63 :   0.4615 0.0000 0.5000  plane waves:    4394
 k-point    64 :   0.0769 0.0769 0.5000  plane waves:    4342
 k-point    65 :   0.1538 0.0769 0.5000  plane waves:    4350
 k-point    66 :   0.2308 0.0769 0.5000  plane waves:    4376
 k-point    67 :   0.3077 0.0769 0.5000  plane waves:    4390
 k-point    68 :   0.3846 0.0769 0.5000  plane waves:    4392
 k-point    69 :   0.4615 0.0769 0.5000  plane waves:    4402
 k-point    70 :   0.1538 0.1538 0.5000  plane waves:    4372
 k-point    71 :   0.2308 0.1538 0.5000  plane waves:    4382
 k-point    72 :   0.3077 0.1538 0.5000  plane waves:    4392
 k-point    73 :   0.3846 0.1538 0.5000  plane waves:    4402
 k-point    74 :   0.4615 0.1538 0.5000  plane waves:    4394
 k-point    75 :   0.2308 0.2308 0.5000  plane waves:    4398
 k-point    76 :   0.3077 0.2308 0.5000  plane waves:    4398
 k-point    77 :   0.3846 0.2308 0.5000  plane waves:    4408
 k-point    78 :   0.4615 0.2308 0.5000  plane waves:    4410
 k-point    79 :   0.3077 0.3077 0.5000  plane waves:    4392
 k-point    80 :   0.3846 0.3077 0.5000  plane waves:    4410
 k-point    81 :   0.4615 0.3077 0.5000  plane waves:    4412
 k-point    82 :   0.3846 0.3846 0.5000  plane waves:    4418
 k-point    83 :   0.4615 0.3846 0.5000  plane waves:    4402
 k-point    84 :   0.4615 0.4615 0.5000  plane waves:    4386

 maximum and minimum number of plane-waves per node :      4418     4335

 maximum number of plane-waves:      4418
 maximum index in each direction: 
   IXMAX=    7   IYMAX=    7   IZMAX=   21
   IXMIN=   -7   IYMIN=   -7   IZMIN=  -21


 serial   3D FFT for wavefunctions
 parallel 3D FFT for charge:
    minimum data exchange during FFTs selected (reduces bandwidth)


 total amount of memory used by VASP MPI-rank0   197318. kBytes
=======================================================================

   base      :      30000. kBytes
   nonl-proj :     108460. kBytes
   fftplans  :        955. kBytes
   grid      :       7297. kBytes
   one-center:        373. kBytes
   wavefun   :      50233. kBytes
 
     INWAV:  cpu time      0.0000: real time      0.0000
 Broyden mixing: mesh for mixing (old mesh)
   NGX = 15   NGY = 15   NGZ = 43
  (NGX  = 56   NGY  = 56   NGZ  =180)
  gives a total of   9675 points

 initial charge density was supplied:
 charge density of overlapping atoms calculated
 number of electron     156.0000000 magnetization       8.5710000
 keeping initial charge density in first step


--------------------------------------------------------------------------------------------------------


 Maximum index for augmentation-charges         1060 (set IRDMAX)


--------------------------------------------------------------------------------------------------------


 First call to EWALD:  gamma=   0.324
 Maximum number of real-space cells 4x 4x 2
 Maximum number of reciprocal cells 2x 2x 5

    FEWALD:  cpu time      0.0022: real time      0.0022


--------------------------------------- Ionic step        1  -------------------------------------------




--------------------------------------- Iteration      1(   1)  ---------------------------------------


    POTLOK:  cpu time      0.0451: real time      0.0492
    SETDIJ:  cpu time      0.0142: real time      0.0147
     EDDAV:  cpu time      6.1347: real time      6.1808
 BZINTS: Fermi energy:   22.604374;  156.000000 electrons
         Band energy: 0.447293E+03;  BLOECHL correction:   -0.062227
       DOS:  cpu time      0.1246: real time      0.1262
    --------------------------------------------
      LOOP:  cpu time      6.3186: real time      6.3709

 eigenvalue-minimisations  : 43008
 total energy-change (2. order) : 0.1771373E+04  (-0.8518408E+04)
 number of electron     156.0000000 magnetization       8.5710000
 augmentation part      156.0000000 magnetization       8.5710000

 Free energy of the ion-electron system (eV)
  ---------------------------------------------------
  alpha Z        PSCENC =      1044.11122432
  Ewald energy   TEWEN  =    -17821.25152900
  -Hartree energ DENC   =     -6134.33342598
  -exchange      EXHF   =         0.00000000
  -V(xc)+E(xc)   XCENC  =       655.36543433
  PAW double counting   =     20093.85191690   -20817.76600211
  entropy T*S    EENTRO =         0.00000000
  eigenvalues    EBANDS =       447.29266395
  atomic energy  EATOM  =     24304.10294433
  Solvation  Ediel_sol  =         0.00000000
  ---------------------------------------------------
  free energy    TOTEN  =      1771.37322675 eV

  energy without entropy =     1771.37322675  energy(sigma->0) =     1771.37322675


--------------------------------------------------------------------------------------------------------




--------------------------------------- Iteration      1(   2)  ---------------------------------------


     EDDAV:  cpu time      6.2836: real time      6.3549
 BZINTS: Fermi energy:   11.651582;  156.000000 electrons
         Band energy:-0.131836E+04;  BLOECHL correction:   -0.017461
       DOS:  cpu time      0.1268: real time      0.1280
    --------------------------------------------
      LOOP:  cpu time      6.4104: real time      6.4829

 eigenvalue-minimisations  : 43008
 total energy-change (2. order) :-0.1765656E+04  (-0.1677084E+04)
 number of electron     156.0000000 magnetization       8.5710000
 augmentation part      156.0000000 magnetization       8.5710000

 Free energy of the ion-electron system (eV)
  ---------------------------------------------------
  alpha Z        PSCENC =      1044.11122432
  Ewald energy   TEWEN  =    -17821.25152900
  -Hartree energ DENC   =     -6134.33342598
  -exchange      EXHF   =         0.00000000
  -V(xc)+E(xc)   XCENC  =       655.36543433
  PAW double counting   =     20093.85191690   -20817.76600211
  entropy T*S    EENTRO =         0.00000000
  eigenvalues    EBANDS =     -1318.36355705
  atomic energy  EATOM  =     24304.10294433
  Solvation  Ediel_sol  =         0.00000000
  ---------------------------------------------------
  free energy    TOTEN  =         5.71700575 eV

  energy without entropy =        5.71700575  energy(sigma->0) =        5.71700575


--------------------------------------------------------------------------------------------------------




--------------------------------------- Iteration      1(   3)  ---------------------------------------


     EDDAV:  cpu time      7.4186: real time      7.4875
 BZINTS: Fermi energy:   11.076050;  156.000000 electrons
         Band energy:-0.142719E+04;  BLOECHL correction:   -0.018795
       DOS:  cpu time      0.1262: real time      0.1274
    --------------------------------------------
      LOOP:  cpu time      7.5449: real time      7.6149

 eigenvalue-minimisations  : 50880
 total energy-change (2. order) :-0.1088294E+03  (-0.1074333E+03)
 number of electron     156.0000000 magnetization       8.5710000
 augmentation part      156.0000000 magnetization       8.5710000

 Free energy of the ion-electron system (eV)
  ---------------------------------------------------
  alpha Z        PSCENC =      1044.11122432
  Ewald energy   TEWEN  =    -17821.25152900
  -Hartree energ DENC   =     -6134.33342598
  -exchange      EXHF   =         0.00000000
  -V(xc)+E(xc)   XCENC  =       655.36543433
  PAW double counting   =     20093.85191690   -20817.76600211
  entropy T*S    EENTRO =         0.00000000
  eigenvalues    EBANDS =     -1427.19296931
  atomic energy  EATOM  =     24304.10294433
  Solvation  Ediel_sol  =         0.00000000
  ---------------------------------------------------
  free energy    TOTEN  =      -103.11240651 eV

  energy without entropy =     -103.11240651  energy(sigma->0) =     -103.11240651


--------------------------------------------------------------------------------------------------------




--------------------------------------- Iteration      1(   4)  ---------------------------------------


     EDDAV:  cpu time      6.4588: real time      6.5214
 BZINTS: Fermi energy:   11.070865;  156.000000 electrons
         Band energy:-0.142882E+04;  BLOECHL correction:   -0.018751
       DOS:  cpu time      0.1264: real time      0.1275
    --------------------------------------------
      LOOP:  cpu time      6.5852: real time      6.6489

 eigenvalue-minimisations  : 45408
 total energy-change (2. order) :-0.1627059E+01  (-0.1626757E+01)
 number of electron     156.0000000 magnetization       8.5710000
 augmentation part      156.0000000 magnetization       8.5710000

 Free energy of the ion-electron system (eV)
  ---------------------------------------------------
  alpha Z        PSCENC =      1044.11122432
  Ewald energy   TEWEN  =    -17821.25152900
  -Hartree energ DENC   =     -6134.33342598
  -exchange      EXHF   =         0.00000000
  -V(xc)+E(xc)   XCENC  =       655.36543433
  PAW double counting   =     20093.85191690   -20817.76600211
  entropy T*S    EENTRO =         0.00000000
  eigenvalues    EBANDS =     -1428.82002797
  atomic energy  EATOM  =     24304.10294433
  Solvation  Ediel_sol  =         0.00000000
  ---------------------------------------------------
  free energy    TOTEN  =      -104.73946517 eV

  energy without entropy =     -104.73946517  energy(sigma->0) =     -104.73946517


--------------------------------------------------------------------------------------------------------




--------------------------------------- Iteration      1(   5)  ---------------------------------------


     EDDAV:  cpu time      7.7841: real time      7.8548
 BZINTS: Fermi energy:   11.070817;  156.000000 electrons
         Band energy:-0.142885E+04;  BLOECHL correction:   -0.018750
       DOS:  cpu time      0.1267: real time      0.1278
    CHARGE:  cpu time      0.1616: real time      0.1625
    MIXING:  cpu time      0.0056: real time      0.0060
    --------------------------------------------
      LOOP:  cpu time      8.0780: real time      8.1511

 eigenvalue-minimisations  : 53120
 total energy-change (2. order) :-0.3310626E-01  (-0.3310576E-01)
 number of electron     156.0000104 magnetization       8.2126650
 augmentation part       79.2687229 magnetization       6.0435723

 Broyden mixing:
  rms(total) = 0.36661E+01    rms(broyden)= 0.36659E+01
  rms(prec ) = 0.42209E+01
  weight for this iteration     100.00

 Free energy of the ion-electron system (eV)
  ---------------------------------------------------
  alpha Z        PSCENC =      1044.11122432
  Ewald energy   TEWEN  =    -17821.25152900
  -Hartree energ DENC   =     -6134.33342598
  -exchange      EXHF   =         0.00000000
  -V(xc)+E(xc)   XCENC  =       655.36543433
  PAW double counting   =     20093.85191690   -20817.76600211
  entropy T*S    EENTRO =         0.00000000
  eigenvalues    EBANDS =     -1428.85313423
  atomic energy  EATOM  =     24304.10294433
  Solvation  Ediel_sol  =         0.00000000
  ---------------------------------------------------
  free energy    TOTEN  =      -104.77257143 eV

  energy without entropy =     -104.77257143  energy(sigma->0) =     -104.77257143


--------------------------------------------------------------------------------------------------------




--------------------------------------- Iteration      1(   6)  ---------------------------------------


    POTLOK:  cpu time      0.0321: real time      0.0460
    SETDIJ:  cpu time      0.0084: real time      0.0085
     EDDAV:  cpu time      7.5840: real time      7.6388
 BZINTS: Fermi energy:    8.382595;  156.000000 electrons
         Band energy:-0.187739E+04;  BLOECHL correction:   -0.019696
       DOS:  cpu time      0.1324: real time      0.1335
    CHARGE:  cpu time      0.1569: real time      0.1578
    MIXING:  cpu time      0.0045: real time      0.0082
    --------------------------------------------
      LOOP:  cpu time      7.9184: real time      7.9927

 eigenvalue-minimisations  : 51872
 total energy-change (2. order) :-0.1130893E+02  (-0.1878722E+02)
 number of electron     156.0000127 magnetization       8.1690531
 augmentation part       89.0874575 magnetization       5.9126074

 Broyden mixing:
  rms(total) = 0.74220E+01    rms(broyden)= 0.74219E+01
  rms(prec ) = 0.11287E+02
  weight for this iteration     100.00

 eigenvalues of (default mixing * dielectric matrix)
  average eigenvalue GAMMA=   0.1904
  0.1904

 Free energy of the ion-electron system (eV)
  ---------------------------------------------------
  alpha Z        PSCENC =      1044.11122432
  Ewald energy   TEWEN  =    -17821.25152900
  -Hartree energ DENC   =     -5704.77606981
  -exchange      EXHF   =         0.00000000
  -V(xc)+E(xc)   XCENC  =       637.65457111
  PAW double counting   =     20276.13449788   -20974.66407877
  entropy T*S    EENTRO =         0.00000000
  eigenvalues    EBANDS =     -1877.39306014
  atomic energy  EATOM  =     24304.10294433
  Solvation  Ediel_sol  =         0.00000000
  ---------------------------------------------------
  free energy    TOTEN  =      -116.08150009 eV

  energy without entropy =     -116.08150009  energy(sigma->0) =     -116.08150009


--------------------------------------------------------------------------------------------------------




--------------------------------------- Iteration      1(   7)  ---------------------------------------


    POTLOK:  cpu time      0.0330: real time      0.0454
    SETDIJ:  cpu time      0.0079: real time      0.0080
     EDDAV:  cpu time      7.6308: real time      7.6850
 BZINTS: Fermi energy:    8.999468;  156.000000 electrons
         Band energy:-0.178638E+04;  BLOECHL correction:   -0.015621
       DOS:  cpu time      0.1319: real time      0.1329
    CHARGE:  cpu time      0.1582: real time      0.1591
    MIXING:  cpu time      0.0028: real time      0.0030
    --------------------------------------------
      LOOP:  cpu time      7.9647: real time      8.0335

 eigenvalue-minimisations  : 52640
 total energy-change (2. order) : 0.6947766E+01  (-0.4388403E+02)
 number of electron     156.0000120 magnetization       7.5512172
 augmentation part       86.3690006 magnetization       7.3938637

 Broyden mixing:
  rms(total) = 0.60676E+01    rms(broyden)= 0.60674E+01
  rms(prec ) = 0.96144E+01
  weight for this iteration     100.00

 eigenvalues of (default mixing * dielectric matrix)
  average eigenvalue GAMMA=   0.2482
  0.3868  0.1097

 Free energy of the ion-electron system (eV)
  ---------------------------------------------------
  alpha Z        PSCENC =      1044.11122432
  Ewald energy   TEWEN  =    -17821.25152900
  -Hartree energ DENC   =     -5776.15796013
  -exchange      EXHF   =         0.00000000
  -V(xc)+E(xc)   XCENC  =       639.32778860
  PAW double counting   =     20547.62455462   -21260.50867864
  entropy T*S    EENTRO =         0.00000000
  eigenvalues    EBANDS =     -1786.38207848
  atomic energy  EATOM  =     24304.10294433
  Solvation  Ediel_sol  =         0.00000000
  ---------------------------------------------------
  free energy    TOTEN  =      -109.13373438 eV

  energy without entropy =     -109.13373438  energy(sigma->0) =     -109.13373438


--------------------------------------------------------------------------------------------------------




--------------------------------------- Iteration      1(   8)  ---------------------------------------


    POTLOK:  cpu time      0.0447: real time      0.0456
    SETDIJ:  cpu time      0.0081: real time      0.0081
     EDDAV:  cpu time      7.4259: real time      7.4811
 BZINTS: Fermi energy:    9.518298;  156.000000 electrons
         Band energy:-0.167050E+04;  BLOECHL correction:   -0.019071
       DOS:  cpu time      0.1324: real time      0.1334
    CHARGE:  cpu time      0.1535: real time      0.1543
    MIXING:  cpu time      0.0019: real time      0.0019
    --------------------------------------------
      LOOP:  cpu time      7.7664: real time      7.8243

 eigenvalue-minimisations  : 51360
 total energy-change (2. order) : 0.1301374E+02  (-0.1168876E+02)
 number of electron     156.0000107 magnetization       7.5312911
 augmentation part       83.9719150 magnetization       4.4614193

 Broyden mixing:
  rms(total) = 0.29948E+01    rms(broyden)= 0.29945E+01
  rms(prec ) = 0.42556E+01
  weight for this iteration     100.00

 eigenvalues of (default mixing * dielectric matrix)
  average eigenvalue GAMMA=   0.3849
  0.7460  0.3077  0.1011

 Free energy of the ion-electron system (eV)
  ---------------------------------------------------
  alpha Z        PSCENC =      1044.11122432
  Ewald energy   TEWEN  =    -17821.25152900
  -Hartree energ DENC   =     -5860.65926257
  -exchange      EXHF   =         0.00000000
  -V(xc)+E(xc)   XCENC  =       641.65895799
  PAW double counting   =     20978.12220385   -21711.70226313
  entropy T*S    EENTRO =         0.00000000
  eigenvalues    EBANDS =     -1670.50227142
  atomic energy  EATOM  =     24304.10294433
  Solvation  Ediel_sol  =         0.00000000
  ---------------------------------------------------
  free energy    TOTEN  =       -96.11999563 eV

  energy without entropy =      -96.11999563  energy(sigma->0) =      -96.11999563


--------------------------------------------------------------------------------------------------------




--------------------------------------- Iteration      1(   9)  ---------------------------------------


    POTLOK:  cpu time      0.0324: real time      0.0463
    SETDIJ:  cpu time      0.0078: real time      0.0078
     EDDAV:  cpu time      7.6386: real time      7.6935
 BZINTS: Fermi energy:    9.604468;  156.000000 electrons
         Band energy:-0.168724E+04;  BLOECHL correction:   -0.019988
       DOS:  cpu time      0.1335: real time      0.1345
    CHARGE:  cpu time      0.1576: real time      0.1585
    MIXING:  cpu time      0.0018: real time      0.0018
    --------------------------------------------
      LOOP:  cpu time      7.9717: real time      8.0424

 eigenvalue-minimisations  : 51968
 total energy-change (2. order) :-0.9176335E+01  (-0.1512881E+02)
 number of electron     156.0000117 magnetization       7.1283817
 augmentation part       84.3002516 magnetization       6.9130750

 Broyden mixing:
  rms(total) = 0.60596E+01    rms(broyden)= 0.60595E+01
  rms(prec ) = 0.90668E+01
  weight for this iteration     100.00

 eigenvalues of (default mixing * dielectric matrix)
  average eigenvalue GAMMA=   0.4198
  1.1164  0.3672  0.1029  0.0925

 Free energy of the ion-electron system (eV)
  ---------------------------------------------------
  alpha Z        PSCENC =      1044.11122432
  Ewald energy   TEWEN  =    -17821.25152900
  -Hartree energ DENC   =     -5846.94962504
  -exchange      EXHF   =         0.00000000
  -V(xc)+E(xc)   XCENC  =       641.30633921
  PAW double counting   =     21168.64512680   -21908.02193722
  entropy T*S    EENTRO =         0.00000000
  eigenvalues    EBANDS =     -1687.23887386
  atomic energy  EATOM  =     24304.10294433
  Solvation  Ediel_sol  =         0.00000000
  ---------------------------------------------------
  free energy    TOTEN  =      -105.29633046 eV

  energy without entropy =     -105.29633046  energy(sigma->0) =     -105.29633046


--------------------------------------------------------------------------------------------------------




--------------------------------------- Iteration      1(  10)  ---------------------------------------


    POTLOK:  cpu time      0.0320: real time      0.0462
    SETDIJ:  cpu time      0.0078: real time      0.0079
     EDDAV:  cpu time      7.6683: real time      7.7229
 BZINTS: Fermi energy:    9.060922;  156.000000 electrons
         Band energy:-0.170981E+04;  BLOECHL correction:   -0.012483
       DOS:  cpu time      0.1324: real time      0.1334
    CHARGE:  cpu time      0.1538: real time      0.1546
    MIXING:  cpu time      0.0021: real time      0.0026
    --------------------------------------------
      LOOP:  cpu time      7.9963: real time      8.0676

 eigenvalue-minimisations  : 52064
 total energy-change (2. order) : 0.1010438E+02  (-0.1406317E+02)
 number of electron     156.0000118 magnetization       7.0443141
 augmentation part       85.0746768 magnetization       5.2993742

 Broyden mixing:
  rms(total) = 0.31361E+01    rms(broyden)= 0.31359E+01
  rms(prec ) = 0.47741E+01
  weight for this iteration     100.00

 eigenvalues of (default mixing * dielectric matrix)
  average eigenvalue GAMMA=   0.3621
  1.1274  0.3570  0.1392  0.0934  0.0934

 Free energy of the ion-electron system (eV)
  ---------------------------------------------------
  alpha Z        PSCENC =      1044.11122432
  Ewald energy   TEWEN  =    -17821.25152900
  -Hartree energ DENC   =     -5808.40365917
  -exchange      EXHF   =         0.00000000
  -V(xc)+E(xc)   XCENC  =       639.58333469
  PAW double counting   =     21358.50984840   -22102.03255168
  entropy T*S    EENTRO =         0.00000000
  eigenvalues    EBANDS =     -1709.81156293
  atomic energy  EATOM  =     24304.10294433
  Solvation  Ediel_sol  =         0.00000000
  ---------------------------------------------------
  free energy    TOTEN  =       -95.19195104 eV

  energy without entropy =      -95.19195104  energy(sigma->0) =      -95.19195104


--------------------------------------------------------------------------------------------------------




--------------------------------------- Iteration      1(  11)  ---------------------------------------


    POTLOK:  cpu time      0.0452: real time      0.0460
    SETDIJ:  cpu time      0.0082: real time      0.0083
     EDDAV:  cpu time      7.5148: real time      7.5687
 BZINTS: Fermi energy:    9.121714;  156.000000 electrons
         Band energy:-0.170861E+04;  BLOECHL correction:   -0.019651
       DOS:  cpu time      0.1322: real time      0.1331
    CHARGE:  cpu time      0.1543: real time      0.1552
    MIXING:  cpu time      0.0021: real time      0.0021
    --------------------------------------------
      LOOP:  cpu time      7.8568: real time      7.9134

 eigenvalue-minimisations  : 51616
 total energy-change (2. order) : 0.3186696E+01  (-0.2326684E+01)
 number of electron     156.0000109 magnetization       7.0811755
 augmentation part       84.8869900 magnetization       5.0800249

 Broyden mixing:
  rms(total) = 0.14095E+01    rms(broyden)= 0.14093E+01
  rms(prec ) = 0.16741E+01
  weight for this iteration     100.00

 eigenvalues of (default mixing * dielectric matrix)
  average eigenvalue GAMMA=   0.3611
  1.1595  0.3550  0.3550  0.1038  0.1038  0.0893

 Free energy of the ion-electron system (eV)
  ---------------------------------------------------
  alpha Z        PSCENC =      1044.11122432
  Ewald energy   TEWEN  =    -17821.25152900
  -Hartree energ DENC   =     -5805.03011362
  -exchange      EXHF   =         0.00000000
  -V(xc)+E(xc)   XCENC  =       639.53605397
  PAW double counting   =     21402.69535482   -22147.55631571
  entropy T*S    EENTRO =         0.00000000
  eigenvalues    EBANDS =     -1708.61287447
  atomic energy  EATOM  =     24304.10294433
  Solvation  Ediel_sol  =         0.00000000
  ---------------------------------------------------
  free energy    TOTEN  =       -92.00525536 eV

  energy without entropy =      -92.00525536  energy(sigma->0) =      -92.00525536


--------------------------------------------------------------------------------------------------------




--------------------------------------- Iteration      1(  12)  ---------------------------------------


    POTLOK:  cpu time      0.0313: real time      0.0460
    SETDIJ:  cpu time      0.0079: real time      0.0079
     EDDAV:  cpu time      7.5189: real time      7.5712
 BZINTS: Fermi energy:    9.179835;  156.000000 electrons
         Band energy:-0.170362E+04;  BLOECHL correction:   -0.019076
       DOS:  cpu time      0.1314: real time      0.1329
    CHARGE:  cpu time      0.1556: real time      0.1564
    MIXING:  cpu time      0.0019: real time      0.0019
    --------------------------------------------
      LOOP:  cpu time      7.8469: real time      7.9164

 eigenvalue-minimisations  : 51616
 total energy-change (2. order) :-0.4871571E+00  (-0.2828779E+00)
 number of electron     156.0000108 magnetization       7.1976498
 augmentation part       84.7586338 magnetization       5.0293744

 Broyden mixing:
  rms(total) = 0.98224E+00    rms(broyden)= 0.98220E+00
  rms(prec ) = 0.11325E+01
  weight for this iteration     100.00

 eigenvalues of (default mixing * dielectric matrix)
  average eigenvalue GAMMA=   0.3998
  1.1865  0.4966  0.4966  0.3265  0.1098  0.1013  0.0814

 Free energy of the ion-electron system (eV)
  ---------------------------------------------------
  alpha Z        PSCENC =      1044.11122432
  Ewald energy   TEWEN  =    -17821.25152900
  -Hartree energ DENC   =     -5808.39314642
  -exchange      EXHF   =         0.00000000
  -V(xc)+E(xc)   XCENC  =       640.31064164
  PAW double counting   =     21471.43742627   -22219.19186612
  entropy T*S    EENTRO =         0.00000000
  eigenvalues    EBANDS =     -1703.61810750
  atomic energy  EATOM  =     24304.10294433
  Solvation  Ediel_sol  =         0.00000000
  ---------------------------------------------------
  free energy    TOTEN  =       -92.49241249 eV

  energy without entropy =      -92.49241249  energy(sigma->0) =      -92.49241249


--------------------------------------------------------------------------------------------------------




--------------------------------------- Iteration      1(  13)  ---------------------------------------


    POTLOK:  cpu time      0.0314: real time      0.0461
    SETDIJ:  cpu time      0.0082: real time      0.0082
     EDDAV:  cpu time      7.5064: real time      7.5582
 BZINTS: Fermi energy:    9.171820;  156.000000 electrons
         Band energy:-0.170688E+04;  BLOECHL correction:   -0.019482
       DOS:  cpu time      0.1330: real time      0.1340
    CHARGE:  cpu time      0.1541: real time      0.1552
    MIXING:  cpu time      0.0020: real time      0.0021
    --------------------------------------------
      LOOP:  cpu time      7.8352: real time      7.9039

 eigenvalue-minimisations  : 51872
 total energy-change (2. order) :-0.3435737E+00  (-0.1779348E+00)
 number of electron     156.0000108 magnetization       7.3721605
 augmentation part       84.8411826 magnetization       5.3149721

 Broyden mixing:
  rms(total) = 0.10727E+01    rms(broyden)= 0.10727E+01
  rms(prec ) = 0.12994E+01
  weight for this iteration     100.00

 eigenvalues of (default mixing * dielectric matrix)
  average eigenvalue GAMMA=   0.4074
  1.1894  0.6543  0.6543  0.3267  0.0828  0.1023  0.1023  0.1471

 Free energy of the ion-electron system (eV)
  ---------------------------------------------------
  alpha Z        PSCENC =      1044.11122432
  Ewald energy   TEWEN  =    -17821.25152900
  -Hartree energ DENC   =     -5804.92508525
  -exchange      EXHF   =         0.00000000
  -V(xc)+E(xc)   XCENC  =       640.55625238
  PAW double counting   =     21503.10019483   -22251.64713036
  entropy T*S    EENTRO =         0.00000000
  eigenvalues    EBANDS =     -1706.88285743
  atomic energy  EATOM  =     24304.10294433
  Solvation  Ediel_sol  =         0.00000000
  ---------------------------------------------------
  free energy    TOTEN  =       -92.83598618 eV

  energy without entropy =      -92.83598618  energy(sigma->0) =      -92.83598618


--------------------------------------------------------------------------------------------------------




--------------------------------------- Iteration      1(  14)  ---------------------------------------


    POTLOK:  cpu time      0.0330: real time      0.0470
    SETDIJ:  cpu time      0.0064: real time      0.0064
     EDDAV:  cpu time      7.4571: real time      7.5112
[...]
    113      23.0545      0.00000
    114      23.4960      0.00000
    115      23.5543      0.00000
    116      23.7588      0.00000
    117      23.9275      0.00000
    118      24.6220      0.00000
    119      24.7731      0.00000
    120      26.4986      0.00000
    121      26.5310      0.00000
    122      26.5792      0.00000
    123      26.9753      0.00000
    124      27.4778      0.00000
    125      27.8002      0.00000
    126      27.9921      0.00000
    127      28.2387      0.00000
    128      28.6846      0.00000


--------------------------------------------------------------------------------------------------------


 soft charge-density along one line, spin component           1
         0         1         2         3         4         5         6         7         8         9
 total charge-density along one line
 
 soft charge-density along one line, spin component           2
         0         1         2         3         4         5         6         7         8         9
 total charge-density along one line
 
 pseudopotential strength for first ion, spin component:           1
-43.348   0.000  -0.000   6.926  -0.000   0.000  -0.000   0.003
  0.000 -43.384   0.000  -0.000   6.940  -0.000   0.000   0.000
 -0.000   0.000 -43.310   0.000  -0.000   6.910   0.000   0.000
  6.926  -0.000   0.000   5.842  -0.000   0.000  -0.000  -0.002
 -0.000   6.940  -0.000  -0.000   5.838  -0.000  -0.000  -0.000
  0.000  -0.000   6.910   0.000  -0.000   5.846  -0.000  -0.000
 -0.000   0.000   0.000  -0.000  -0.000  -0.000  -0.790   0.000
  0.003   0.000   0.000  -0.002  -0.000  -0.000   0.000  -0.796
 -0.000   0.004   0.000   0.000  -0.001  -0.000   0.000   0.000
  0.000  -0.000  -0.003  -0.000  -0.000   0.004   0.000  -0.000
 -0.000  -0.003  -0.000   0.000   0.003   0.000   0.000  -0.000
 -0.000   0.000   0.000   0.000  -0.000  -0.000  -1.325   0.000
  0.003   0.000   0.000  -0.001  -0.000  -0.000   0.000  -1.330
 -0.000   0.004   0.000   0.000  -0.000  -0.000   0.000   0.000
  0.000  -0.000  -0.003  -0.000   0.000   0.004   0.000  -0.000
 -0.000  -0.003  -0.000   0.000   0.003   0.000   0.000  -0.000
 -0.000   0.001  -0.000  -0.000   0.002   0.000   0.000  -0.000
 -0.000   0.004   0.000  -0.000   0.005   0.000   0.000  -0.000
 pseudopotential strength for first ion, spin component:           2
-45.633   0.000  -0.000   7.887  -0.000   0.000  -0.000   0.006
  0.000 -45.701   0.000  -0.000   7.913  -0.000   0.000   0.000
 -0.000   0.000 -45.509   0.000  -0.000   7.835   0.000   0.000
  7.887  -0.000   0.000   5.569  -0.000   0.000   0.000  -0.003
 -0.000   7.913  -0.000  -0.000   5.563  -0.000  -0.000  -0.000
  0.000  -0.000   7.835   0.000  -0.000   5.579  -0.000  -0.000
 -0.000   0.000   0.000   0.000  -0.000  -0.000  -2.549   0.000
  0.006   0.000   0.000  -0.003  -0.000  -0.000   0.000  -2.723
 -0.000   0.016   0.000   0.000  -0.007  -0.000   0.000   0.000
  0.000  -0.000   0.027  -0.000   0.000  -0.012   0.000  -0.000
 -0.000   0.010  -0.000   0.000  -0.004   0.000  -0.000  -0.000
 -0.000   0.000   0.000   0.000  -0.000  -0.000  -3.055   0.000
  0.006   0.000   0.000  -0.003  -0.000  -0.000   0.000  -3.226
 -0.000   0.015   0.000   0.000  -0.007  -0.000   0.000   0.000
  0.000  -0.000   0.026  -0.000   0.000  -0.012   0.000  -0.000
 -0.000   0.010  -0.000   0.000  -0.004   0.000  -0.000  -0.000
 -0.000  -0.005   0.000  -0.000   0.004   0.000   0.000  -0.000
 -0.000  -0.014   0.000  -0.000   0.009   0.000   0.000  -0.000
 total augmentation occupancy for first ion, spin component:           1
  1.992   0.000   0.000  -0.028   0.000   0.000   0.000  -0.007   0.000   0.000   0.000   0.000   0.007   0.000   0.000   0.000
  0.000   1.992  -0.000   0.000  -0.029   0.000   0.000   0.000  -0.005   0.000   0.003   0.000   0.000   0.005  -0.000  -0.003
  0.000  -0.000   1.992   0.000   0.000  -0.028   0.000   0.000   0.000  -0.001   0.000  -0.000  -0.000   0.000   0.001  -0.000
 -0.028   0.000   0.000   0.171  -0.000   0.000   0.000  -0.021   0.000   0.000   0.000   0.000   0.028   0.000   0.000   0.000
  0.000  -0.029   0.000  -0.000   0.170  -0.000   0.000  -0.000  -0.011   0.000   0.020   0.000   0.000   0.004   0.000  -0.032
  0.000   0.000  -0.028   0.000  -0.000   0.151  -0.000   0.000  -0.000   0.016   0.000  -0.000   0.000  -0.000  -0.042   0.000
  0.000   0.000   0.000   0.000   0.000  -0.000   2.880  -0.000   0.000   0.000   0.000  -1.496   0.000   0.000   0.000   0.000
 -0.007   0.000   0.000  -0.021  -0.000   0.000  -0.000   2.955   0.000   0.000   0.000   0.000  -1.888   0.000   0.000   0.000
  0.000  -0.005   0.000   0.000  -0.011  -0.000   0.000   0.000   3.349   0.000   0.219   0.000   0.000  -1.851   0.000  -0.127
  0.000   0.000  -0.001   0.000   0.000   0.016   0.000   0.000   0.000   2.703  -0.000   0.000   0.000   0.000  -1.388   0.000
  0.000   0.003   0.000   0.000   0.020   0.000   0.000   0.000   0.219  -0.000   3.000   0.000  -0.000  -0.126   0.000  -1.640
  0.000   0.000  -0.000   0.000   0.000  -0.000  -1.496   0.000   0.000   0.000   0.000   1.557  -0.000   0.000   0.000   0.000
  0.007   0.000  -0.000   0.028   0.000   0.000   0.000  -1.888   0.000   0.000  -0.000  -0.000   2.070   0.000   0.000  -0.000
  0.000   0.005   0.000   0.000   0.004  -0.000   0.000   0.000  -1.851   0.000  -0.126   0.000   0.000   1.656   0.000   0.045
  0.000  -0.000   0.001   0.000   0.000  -0.042   0.000   0.000   0.000  -1.388   0.000   0.000   0.000   0.000   1.447  -0.000
  0.000  -0.003  -0.000   0.000  -0.032   0.000   0.000   0.000  -0.127   0.000  -1.640   0.000  -0.000   0.045  -0.000   1.549
  0.000  -0.000  -0.000   0.000  -0.001   0.000   0.000   0.000  -0.114   0.000   0.180   0.000   0.000   0.069   0.000  -0.131
  0.000   0.001   0.000   0.000   0.000  -0.000   0.000   0.000   0.012  -0.000  -0.011   0.000   0.000  -0.006  -0.000   0.007
 total augmentation occupancy for first ion, spin component:           2
  0.002   0.000   0.000   0.009   0.000   0.000   0.000   0.002   0.000   0.000   0.000   0.000  -0.002   0.000   0.000   0.000
  0.000   0.002   0.000   0.000   0.008  -0.000   0.000   0.000   0.004   0.000   0.004  -0.000   0.000  -0.005   0.000  -0.005
  0.000   0.000   0.002   0.000  -0.000   0.009   0.000  -0.000   0.000   0.011  -0.000   0.000   0.000   0.000  -0.011   0.000
  0.009   0.000   0.000  -0.007   0.000   0.000   0.000   0.022   0.000   0.000  -0.000   0.000  -0.018   0.000   0.000   0.000
  0.000   0.008  -0.000   0.000  -0.002   0.000   0.000   0.000  -0.005   0.000  -0.035   0.000   0.000  -0.008   0.000   0.013
  0.000  -0.000   0.009   0.000   0.000  -0.002  -0.000   0.000   0.000  -0.063  -0.000  -0.000   0.000   0.000   0.011  -0.000
  0.000   0.000   0.000   0.000   0.000  -0.000  -2.297   0.000   0.000   0.000   0.000   1.054  -0.000   0.000   0.000  -0.000
  0.002   0.000  -0.000   0.022   0.000   0.000   0.000  -2.211   0.000   0.000  -0.000   0.000   0.803  -0.000   0.000   0.000
  0.000   0.004   0.000   0.000  -0.005   0.000   0.000   0.000  -2.747   0.000  -0.096   0.000   0.000   1.224   0.000   0.082
  0.000   0.000   0.011   0.000   0.000  -0.063   0.000   0.000   0.000  -2.073   0.000   0.000   0.000   0.000   0.796   0.000
  0.000   0.004  -0.000  -0.000  -0.035  -0.000   0.000  -0.000  -0.096   0.000  -2.457   0.000  -0.000   0.083   0.000   0.954
  0.000  -0.000   0.000   0.000   0.000  -0.000   1.054   0.000   0.000   0.000   0.000  -0.308   0.000   0.000   0.000  -0.000
 -0.002   0.000   0.000  -0.018   0.000   0.000  -0.000   0.803   0.000   0.000  -0.000   0.000  -0.042  -0.000   0.000  -0.000
  0.000  -0.005   0.000   0.000  -0.008   0.000   0.000  -0.000   1.224   0.000   0.083   0.000  -0.000  -0.432   0.000  -0.086
  0.000   0.000  -0.011   0.000   0.000   0.011   0.000   0.000   0.000   0.796   0.000   0.000   0.000   0.000  -0.090   0.000
  0.000  -0.005   0.000   0.000   0.013  -0.000  -0.000   0.000   0.082   0.000   0.954  -0.000  -0.000  -0.086   0.000  -0.180
  0.000  -0.001   0.000   0.000  -0.018   0.000   0.000   0.000   0.018   0.000  -0.052   0.000   0.000  -0.029   0.000   0.044
  0.000   0.000   0.000   0.000  -0.000  -0.000   0.000   0.000  -0.008   0.000   0.005   0.000   0.000   0.002  -0.000  -0.001


------------------------ aborting loop because EDIFF is reached ----------------------------------------





 total charge

# of ion       s       p       d       tot
------------------------------------------
    1        0.340   6.304   5.994  12.638
    2        0.337   6.301   6.014  12.652
    3        0.335   6.297   5.988  12.620
    4        0.342   6.308   5.980  12.630
    5        0.341   6.305   5.992  12.638
    6        0.337   6.304   5.990  12.631
    7        0.340   6.304   5.994  12.638
    8        0.337   6.301   6.014  12.652
    9        0.335   6.297   5.988  12.620
   10        0.745   0.637   8.013   9.395
   11        0.750   0.635   8.018   9.404
   12        0.737   0.657   8.010   9.405
--------------------------------------------------
tot          5.277  58.651  77.996 141.924



 magnetization (x)

# of ion       s       p       d       tot
------------------------------------------
    1       -0.014  -0.005  -2.670  -2.690
    2        0.003  -0.012   2.719   2.709
    3        0.011   0.002   2.701   2.713
    4       -0.018  -0.020  -2.690  -2.728
    5        0.015   0.021   2.651   2.687
    6        0.003  -0.014   2.848   2.836
    7       -0.014  -0.005  -2.670  -2.690
    8        0.003  -0.012   2.719   2.709
    9        0.011   0.002   2.701   2.713
   10        0.008   0.015  -0.070  -0.047
   11       -0.008  -0.016   0.068   0.044
   12       -0.041  -0.097   0.411   0.273
--------------------------------------------------
tot         -0.043  -0.143   8.718   8.532
 
    CHARGE:  cpu time      0.1529: real time      0.1538
    FORLOC:  cpu time      0.0025: real time      0.0026
    FORNL :  cpu time      0.7616: real time      0.7660
    STRESS:  cpu time      4.6758: real time      4.7140
    FORCOR:  cpu time      0.0226: real time      0.0232
    FORHAR:  cpu time      0.0038: real time      0.0040
    MIXING:  cpu time      0.0031: real time      0.0031
    OFIELD:  cpu time      0.0014: real time      0.0014

  FORCE on cell =-STRESS in cart. coord.  units (eV):
  Direction    XX          YY          ZZ          XY          YZ          ZX
  --------------------------------------------------------------------------------------
  Alpha Z  1044.11122  1044.11122  1044.11122
  Ewald   -5928.17600 -5928.17600 -5964.92324     0.00000     0.00000    -0.00000
  Hartree  1939.12891  1939.12891  1906.20604    -0.00000    -0.00000    -0.00000
  E(xc)    -942.45996  -942.45996  -942.40453    -0.00000    -0.00000     0.00000
  Local     972.42334   972.42334  1049.41149    -0.00000    -0.00000     0.00000
  n-local  -221.30400  -236.05555  -229.62336    13.54358     0.11527     0.14134
  augment  1441.70178  1441.70178  1437.48026     0.00000     0.00000    -0.00000
  Kinetic  1700.43625  1686.16474  1691.13356     2.38396     0.04242    -0.07587
  Fock        0.00000     0.00000     0.00000     0.00000     0.00000     0.00000
  -------------------------------------------------------------------------------------
  Total      -8.64999    -8.64999    -8.60854     0.00000     0.00000     0.00000
  in kB     -85.02340   -85.02340   -84.61603     0.00000     0.00000     0.00000
  external pressure =      -84.89 kB  Pullay stress =        0.00 kB


 VOLUME and BASIS-vectors are now :
 -----------------------------------------------------------------------------
  energy-cutoff  :      520.00
  volume of cell :      163.00
      direct lattice vectors                 reciprocal lattice vectors
     3.767170080  0.000000000  0.000000000     0.265451248  0.000000000  0.000000000
     0.000000000  3.767170080  0.000000000     0.000000000  0.265451248  0.000000000
     0.000000000  0.000000000 11.485691525     0.000000000  0.000000000  0.087064849

  length of vectors
     3.767170080  3.767170080 11.485691525     0.265451248  0.265451248  0.087064849


 FORCES acting on ions
    electron-ion (+dipol)            ewald-force                    non-local-force                 convergence-correction
 -----------------------------------------------------------------------------------------------
   -.722E-13 0.161E-11 0.292E+01   -.280E-13 -.401E-13 -.392E+01   0.149E-18 0.692E-18 0.971E+00   -.130E-12 -.219E-13 0.246E-01
   -.812E-13 0.120E-11 -.198E+02   0.221E-13 -.209E-13 0.201E+02   0.189E-19 0.661E-18 -.286E+00   -.996E-13 -.111E-13 -.201E-01
   -.787E-13 0.266E-11 -.260E+02   0.330E-14 -.996E-14 0.248E+02   -.240E-18 0.308E-17 0.123E+01   -.118E-12 0.105E-13 -.386E-02
   0.114E-11 -.507E-11 0.812E+02   0.765E-14 0.333E-13 -.785E+02   -.526E-18 -.231E-18 -.276E+01   -.181E-12 0.779E-13 0.454E-01
   0.112E-11 -.497E-11 0.879E+02   0.357E-13 0.930E-14 -.853E+02   0.569E-18 -.112E-17 -.263E+01   -.163E-12 0.787E-13 -.109E-01
   0.114E-11 -.447E-11 -.714E+02   -.142E-13 0.409E-13 0.717E+02   0.166E-18 -.251E-18 -.250E+00   -.198E-12 0.168E-13 -.337E-01
   0.113E-11 -.458E-12 0.292E+01   -.211E-13 0.740E-14 -.392E+01   -.201E-18 0.105E-18 0.971E+00   -.168E-12 0.531E-13 0.246E-01
   0.114E-11 -.121E-12 -.198E+02   -.335E-14 -.225E-14 0.201E+02   -.134E-18 0.426E-19 -.286E+00   -.196E-12 0.233E-13 -.201E-01
   0.112E-11 -.702E-12 -.260E+02   0.140E-13 0.158E-13 0.248E+02   0.122E-17 0.636E-18 0.123E+01   -.175E-12 0.199E-13 -.386E-02
   -.294E-13 -.884E-14 0.173E+02   0.258E-13 0.108E-13 -.178E+02   0.108E-17 0.773E-20 0.440E+00   -.932E-15 -.238E-13 0.311E-01
   -.214E-13 0.644E-13 0.775E+01   -.539E-13 -.160E-13 -.806E+01   0.196E-18 -.966E-18 0.323E+00   -.115E-13 -.197E-13 -.786E-02
   -.277E-13 -.457E-13 -.362E+02   -.162E-14 -.288E-13 0.359E+02   -.225E-18 -.417E-18 0.268E+00   -.326E-15 -.188E-13 -.241E-01
 -----------------------------------------------------------------------------------------------
   0.647E-11 -.103E-10 0.782E+00   -.137E-13 -.574E-15 -.256E-12   0.207E-17 0.224E-17 -.785E+00   -.144E-11 0.185E-12 0.134E-02
 
 
 POSITION                                       TOTAL-FORCE (eV/Angst)
 -----------------------------------------------------------------------------------
      0.00000      1.88359      1.91395        -0.000000      0.000000     -0.004547
      0.00000      1.88359      5.73506         0.000000     -0.000000      0.001404
      0.00000      1.88359      9.56213        -0.000000     -0.000000     -0.004058
      1.88359      1.88359      0.07476         0.000000     -0.000000      0.013089
      1.88359      1.88359      3.91772         0.000000     -0.000000     -0.018676
      1.88359      1.88359      7.61961        -0.000000      0.000000      0.006625
      1.88359      0.00000      1.91395        -0.000000      0.000000     -0.004547
      1.88359      0.00000      5.73506         0.000000      0.000000      0.001404
      1.88359      0.00000      9.56213         0.000000      0.000000     -0.004058
      0.00000      0.00000     11.45636         0.000000      0.000000      0.000289
      0.00000      0.00000      3.77632         0.000000      0.000000      0.002667
      0.00000      0.00000      7.64712         0.000000      0.000000      0.010408
 -----------------------------------------------------------------------------------
    total drift:                                0.000000     -0.000000     -0.001893


--------------------------------------------------------------------------------------------------------



  FREE ENERGIE OF THE ION-ELECTRON SYSTEM (eV)
  ---------------------------------------------------
  free  energy   TOTEN  =       -93.10869509 eV

  energy  without entropy=      -93.10869509  energy(sigma->0) =      -93.10869509
 


--------------------------------------------------------------------------------------------------------


    POTLOK:  cpu time      0.0380: real time      0.0384


--------------------------------------------------------------------------------------------------------


     LOOP+:  cpu time    229.6968: real time    231.9527
 -----------------------------------------------------------------------------
|                                                                             |
|           W    W    AA    RRRRR   N    N  II  N    N   GGGG   !!!           |
|           W    W   A  A   R    R  NN   N  II  NN   N  G    G  !!!           |
|           W    W  A    A  R    R  N N  N  II  N N  N  G       !!!           |
|           W WW W  AAAAAA  RRRRR   N  N N  II  N  N N  G  GGG   !            |
|           WW  WW  A    A  R   R   N   NN  II  N   NN  G    G                |
|           W    W  A    A  R    R  N    N  II  N    N   GGGG   !!!           |
|                                                                             |
|     Tetrahedron method does not include variations of the Fermi             |
|     occupations, so forces and stress will be inaccurate. We suggest        |
|     using a different smearing scheme ISMEAR = 1 or 2 for metals in         |
|     relaxations.                                                            |
|                                                                             |
 -----------------------------------------------------------------------------

    4ORBIT:  cpu time      0.0000: real time      0.0000



 total charge

# of ion       s       p       d       tot
------------------------------------------
    1        0.340   6.304   5.994  12.638
    2        0.337   6.301   6.014  12.652
    3        0.335   6.297   5.988  12.620
    4        0.342   6.308   5.980  12.630
    5        0.341   6.305   5.992  12.638
    6        0.337   6.304   5.990  12.631
    7        0.340   6.304   5.994  12.638
    8        0.337   6.301   6.014  12.652
    9        0.335   6.297   5.988  12.620
   10        0.745   0.637   8.013   9.395
   11        0.750   0.635   8.018   9.404
   12        0.737   0.657   8.010   9.405
--------------------------------------------------
tot          5.277  58.651  77.996 141.924



 magnetization (x)

# of ion       s       p       d       tot
------------------------------------------
    1       -0.014  -0.005  -2.670  -2.690
    2        0.003  -0.012   2.719   2.709
    3        0.011   0.002   2.701   2.713
    4       -0.018  -0.020  -2.690  -2.728
    5        0.015   0.021   2.651   2.687
    6        0.003  -0.014   2.848   2.836
    7       -0.014  -0.005  -2.670  -2.690
    8        0.003  -0.012   2.719   2.709
    9        0.011   0.002   2.701   2.713
   10        0.008   0.015  -0.070  -0.047
   11       -0.008  -0.016   0.068   0.044
   12       -0.041  -0.097   0.411   0.273
--------------------------------------------------
tot         -0.043  -0.143   8.718   8.532
 
 BZINTS: Fermi energy:    9.259116;  156.000000 electrons
         Band energy:-0.171857E+04;  BLOECHL correction:   -0.020599

 total amount of memory used by VASP MPI-rank0   197318. kBytes
=======================================================================

   base      :      30000. kBytes
   nonl-proj :     108460. kBytes
   fftplans  :        955. kBytes
   grid      :       7297. kBytes
   one-center:        373. kBytes
   wavefun   :      50233. kBytes
 
  
  
 General timing and accounting informations for this job:
 ========================================================
  
                  Total CPU time used (sec):      249.218
                            User time (sec):      241.001
                          System time (sec):        8.217
                         Elapsed time (sec):      258.180
  
                   Maximum memory used (kb):      886280.
                   Average memory used (kb):          N/A
  
                          Minor page faults:       205514
                          Major page faults:          125
                 Voluntary context switches:         8535
