 vasp.6.4.3 19Mar24 (build Mar 26 2024 14:05:37) complex                        
  
 executed on             LinuxIFC date 2024.12.16  21:30:27
 running  128 mpi-ranks, on    1 nodes
 distrk:  each k-point on   32 cores,    4 groups
 distr:  one band on NCORE=   1 cores,   32 groups


--------------------------------------------------------------------------------------------------------


 INCAR:
   ALGO = All
   EDIFF = 1e-06
   EDIFFG = -0.01
   ENCUT = 520
   GGA = Pe
   IBRION = 2
   ISIF = 4
   ISMEAR = 1
   ISPIN = 2
   KPAR = 4
   LCHARG = True
   LORBIT = 11
   LREAL = False
   LWAVE = False
   MAGMOM = 1*-2.689 1*2.714 1*2.717 1*-2.723 1*2.693 1*2.84 1*-2.689 1*2.714 1*2.717 1*-0.047 1*0.046 1*0.275
   NELM = 200
   NSW = 100
   PREC = Accurate
   SIGMA = 0.2

 POTCAR:    PAW_PBE Fe_pv 02Aug2007               
 POTCAR:    PAW_PBE Pt 04Feb2005                  
 -----------------------------------------------------------------------------
|                                                                             |
|           W    W    AA    RRRRR   N    N  II  N    N   GGGG   !!!           |
|           W    W   A  A   R    R  NN   N  II  NN   N  G    G  !!!           |
|           W    W  A    A  R    R  N N  N  II  N N  N  G       !!!           |
|           W WW W  AAAAAA  RRRRR   N  N N  II  N  N N  G  GGG   !            |
|           WW  WW  A    A  R   R   N   NN  II  N   NN  G    G                |
|           W    W  A    A  R    R  N    N  II  N    N   GGGG   !!!           |
|                                                                             |
|     For optimal performance we recommend to set                             |
|       NCORE = 2 up to number-of-cores-per-socket                            |
|     NCORE specifies how many cores store one orbital (NPAR=cpu/NCORE).      |
|     This setting can greatly improve the performance of VASP for DFT.       |
|     The default, NCORE=1 might be grossly inefficient on modern             |
|     multi-core architectures or massively parallel machines. Do your        |
|     own testing! More info at https://www.vasp.at/wiki/index.php/NCORE      |
|     Unfortunately you need to use the default for GW and RPA                |
|     calculations (for HF NCORE is supported but not extensively tested      |
|     yet).                                                                   |
|                                                                             |
 -----------------------------------------------------------------------------

 POTCAR:    PAW_PBE Fe_pv 02Aug2007               
   SHA256 =  5d22e414b1f82158bf2c7ecb8b97b28fd0923e48cadc1c3bf74d524558f5dd32 Fe_pv/POTCAR          
   COPYR  = (c) Copyright 02Aug2007 Georg Kresse                                                    
   COPYR  = This file is part of the software VASP. Any use, copying, and all other rights are regul
   COPYR  = If you do not have a valid VASP license, you may not use, copy or distribute this file. 
   VRHFIN =Fe:  3pd7s1                                                                              
   LEXCH  = PE                                                                                      
   EATOM  =  2457.4239 eV,  180.6156 Ry                                                             
                                                                                                    
   TITEL  = PAW_PBE Fe_pv 02Aug2007                                                                 
   LULTRA =        F    use ultrasoft PP ?                                                          
   IUNSCR =        1    unscreen: 0-lin 1-nonlin 2-no                                               
   RPACOR =    1.750    partial core radius                                                         
   POMASS =   55.847; ZVAL   =   14.000    mass and valenz                                          
   RCORE  =    2.200    outmost cutoff radius                                                       
   RWIGS  =    2.200; RWIGS  =    1.164    wigner-seitz radius (au A)                               
   ENMAX  =  293.238; ENMIN  =  219.928 eV                                                          
   ICORE  =        3    local potential                                                             
   LCOR   =        T    correct aug charges                                                         
   LPAW   =        T    paw PP                                                                      
   EAUG   =  578.342                                                                                
   DEXC   =    0.000                                                                                
   RMAX   =    2.249    core radius for proj-oper                                                   
   RAUG   =    1.300    factor for augmentation sphere                                              
   RDEP   =    2.296    radius for radial grids                                                     
   RDEPT  =    1.766    core radius for aug-charge                                                  
                                                                                                    
   Atomic configuration                                                                             
    8 entries                                                                                       
     n  l   j            E        occ.                                                              
     1  0  0.50     -6993.8440   2.0000                                                             
     2  0  0.50      -814.6047   2.0000                                                             
     2  1  1.50      -693.3689   6.0000                                                             
     3  0  0.50       -89.4732   2.0000                                                             
     3  1  1.50       -55.6373   6.0000                                                             
     3  2  2.50        -3.8151   7.0000                                                             
     4  0  0.50        -4.2551   1.0000                                                             
     4  3  2.50        -1.3606   0.0000                                                             
   Description                                                                                      
     l       E           TYP  RCUT    TYP  RCUT                                                     
     1    -55.6372668     23  2.000                                                                 
     1     -5.4423304     23  2.000                                                                 
     2     -3.8151096     23  2.200                                                                 
     2     -5.1756922     23  2.200                                                                 
     0     -4.2550951     23  2.200                                                                 
     0     27.2116520     23  2.200                                                                 
     3     -1.3605826     23  2.200                                                                 
  local pseudopotential read in
  partial core-charges read in
  partial kinetic energy density read in
  atomic valenz-charges read in
  non local Contribution for L=           1  read in
    real space projection operators read in
  non local Contribution for L=           1  read in
    real space projection operators read in
  non local Contribution for L=           2  read in
    real space projection operators read in
  non local Contribution for L=           2  read in
    real space projection operators read in
  non local Contribution for L=           0  read in
    real space projection operators read in
  non local Contribution for L=           0  read in
    real space projection operators read in
    PAW grid and wavefunctions read in
 
   number of l-projection  operators is LMAX  =           6
   number of lm-projection operators is LMMAX =          18
 
 POTCAR:    PAW_PBE Pt 04Feb2005                  
   SHA256 =  3ed90460adef76debcff1cfb73ee1349b515b1a3db03439735b44de3a8db7dc8 Pt/POTCAR             
   COPYR  = (c) Copyright 04Feb2005 Georg Kresse                                                    
   COPYR  = This file is part of the software VASP. Any use, copying, and all other rights are regul
   COPYR  = If you do not have a valid VASP license, you may not use, copy or distribute this file. 
   VRHFIN =Pt: s1d9                                                                                 
   LEXCH  = PE                                                                                      
   EATOM  =   729.1176 eV,   53.5886 Ry                                                             
                                                                                                    
   TITEL  = PAW_PBE Pt 04Feb2005                                                                    
   LULTRA =        F    use ultrasoft PP ?                                                          
   IUNSCR =        1    unscreen: 0-lin 1-nonlin 2-no                                               
   RPACOR =    2.330    partial core radius                                                         
   POMASS =  195.080; ZVAL   =   10.000    mass and valenz                                          
   RCORE  =    2.600    outmost cutoff radius                                                       
   RWIGS  =    2.750; RWIGS  =    1.455    wigner-seitz radius (au A)                               
   ENMAX  =  230.283; ENMIN  =  172.712 eV                                                          
   ICORE  =        3    local potential                                                             
   LCOR   =        T    correct aug charges                                                         
   LPAW   =        T    paw PP                                                                      
   EAUG   =  358.966                                                                                
   DEXC   =    0.000                                                                                
   RMAX   =    2.658    core radius for proj-oper                                                   
   RAUG   =    1.300    factor for augmentation sphere                                              
   RDEP   =    2.761    radius for radial grids                                                     
   RDEPT  =    2.203    core radius for aug-charge                                                  
                                                                                                    
   Atomic configuration                                                                             
   16 entries                                                                                       
     n  l   j            E        occ.                                                              
     1  0  0.50    -78401.1885   2.0000                                                             
     2  0  0.50    -13770.7750   2.0000                                                             
     2  1  1.50    -11931.0468   6.0000                                                             
     3  0  0.50     -3234.7234   2.0000                                                             
     3  1  1.50     -2699.2216   6.0000                                                             
     3  2  2.50     -2119.5714  10.0000                                                             
     4  0  0.50      -695.1528   2.0000                                                             
     4  1  1.50      -519.6034   6.0000                                                             
     4  2  2.50      -306.6786  10.0000                                                             
     4  3  3.50       -70.1041  14.0000                                                             
     5  0  0.50      -101.7747   2.0000                                                             
     5  1  1.50       -55.9873   6.0000                                                             
     5  2  2.50        -6.1423   9.0000                                                             
     6  0  0.50        -5.6573   1.0000                                                             
     6  1  1.50        -6.8029   0.0000                                                             
     5  3  2.50        -1.3606   0.0000                                                             
   Description                                                                                      
     l       E           TYP  RCUT    TYP  RCUT                                                     
     2     -6.1423404     23  2.500                                                                 
     2     -7.5029230     23  2.500                                                                 
     0     -5.6573207     23  2.500                                                                 
     0      0.7416693     23  2.500                                                                 
     1     -2.7211652     23  2.600                                                                 
     1     20.4087390     23  2.600                                                                 
     3     -1.3605826     23  2.500                                                                 
  local pseudopotential read in
  partial core-charges read in
  partial kinetic energy density read in
  atomic valenz-charges read in
  non local Contribution for L=           2  read in
    real space projection operators read in
  non local Contribution for L=           2  read in
    real space projection operators read in
  non local Contribution for L=           0  read in
    real space projection operators read in
  non local Contribution for L=           0  read in
    real space projection operators read in
  non local Contribution for L=           1  read in
    real space projection operators read in
  non local Contribution for L=           1  read in
    real space projection operators read in
    PAW grid and wavefunctions read in
 
   number of l-projection  operators is LMAX  =           6
   number of lm-projection operators is LMMAX =          18
 
  PAW_PBE Fe_pv 02Aug2007               :
 energy of atom  1       EATOM=-2457.4239
 kinetic energy error for atom=    0.0062 (will be added to EATOM!!)
  PAW_PBE Pt 04Feb2005                  :
 energy of atom  2       EATOM= -729.1176
 kinetic energy error for atom=    0.0032 (will be added to EATOM!!)
 
 
 POSCAR: Fe9 Pt3
  positions in direct lattice
  velocities in cartesian coordinates


 exchange-correlation table for PE
   RHO(1)=    0.500       N(1)  =     2000
   RHO(2)=  100.500       N(2)  =     4000
 


--------------------------------------------------------------------------------------------------------


 ion  position               nearest neighbor table
   1  0.000  0.500  0.167-   4 2.63   4 2.63  11 2.65  11 2.65   7 2.66   7 2.66   7 2.66   7 2.66
                            10 2.71  10 2.71   5 2.75   5 2.75
   2  0.000  0.500  0.499-   5 2.62   5 2.62   6 2.66   6 2.66   8 2.66   8 2.66   8 2.66   8 2.66
                            12 2.68  12 2.68  11 2.72  11 2.72
   3  0.000  0.500  0.833-   9 2.66   9 2.66   9 2.66   9 2.66  10 2.67  10 2.67  12 2.69  12 2.69
                             6 2.71   6 2.71   4 2.75   4 2.75
   4  0.500  0.500  0.006-   1 2.63   7 2.63   7 2.63   1 2.63  10 2.67  10 2.67  10 2.67  10 2.67
                             9 2.75   3 2.75   9 2.75   3 2.75
   5  0.500  0.500  0.341-   2 2.62   8 2.62   8 2.62   2 2.62  11 2.67  11 2.67  11 2.67  11 2.67
                             1 2.75   7 2.75   1 2.75   7 2.75
   6  0.500  0.500  0.663-   2 2.66   8 2.66   8 2.66   2 2.66  12 2.66  12 2.66  12 2.66  12 2.66
                             9 2.71   3 2.71   9 2.71   3 2.71
   7  0.500  0.000  0.167-   4 2.63   4 2.63  11 2.65  11 2.65   1 2.66   1 2.66   1 2.66   1 2.66
                            10 2.71  10 2.71   5 2.75   5 2.75
   8  0.500  0.000  0.499-   5 2.62   5 2.62   6 2.66   6 2.66   2 2.66   2 2.66   2 2.66   2 2.66
                            12 2.68  12 2.68  11 2.72  11 2.72
   9  0.500  0.000  0.833-   3 2.66   3 2.66   3 2.66   3 2.66  10 2.67  10 2.67  12 2.69  12 2.69
                             6 2.71   6 2.71   4 2.75   4 2.75
  10  0.000  0.000  0.997-   4 2.67   4 2.67   4 2.67   4 2.67   3 2.67   9 2.67   9 2.67   3 2.67
                             1 2.71   7 2.71   7 2.71   1 2.71
  11  0.000  0.000  0.329-   1 2.65   7 2.65   1 2.65   7 2.65   5 2.67   5 2.67   5 2.67   5 2.67
                             2 2.72   2 2.72   8 2.72   8 2.72
  12  0.000  0.000  0.666-   6 2.66   6 2.66   6 2.66   6 2.66   2 2.68   8 2.68   8 2.68   2 2.68
                             3 2.69   3 2.69   9 2.69   9 2.69
 
  LATTYP: Found a simple tetragonal cell.
 ALAT       =     3.7677535275
 C/A-ratio  =     3.0474749825
  
  Lattice vectors:
  
 A1 = (   3.7677535275,   0.0000000000,   0.0000000000)
 A2 = (   0.0000000000,   3.7677535275,   0.0000000000)
 A3 = (   0.0000000000,   0.0000000000,  11.4821346153)


Analysis of symmetry for initial positions (statically):
=====================================================================
 Subroutine PRICEL returns:
 Original cell was already a primitive cell.
 

 Routine SETGRP: Setting up the symmetry group for a 
 simple tetragonal supercell.


 Subroutine GETGRP returns: Found  8 space group operations
 (whereof  8 operations were pure point group operations)
 out of a pool of 16 trial point group operations.


The static configuration has the point symmetry C_4v.


Analysis of symmetry for dynamics (positions and initial velocities):
=====================================================================
 Subroutine PRICEL returns:
 Original cell was already a primitive cell.
 

 Routine SETGRP: Setting up the symmetry group for a 
 simple tetragonal supercell.


 Subroutine GETGRP returns: Found  8 space group operations
 (whereof  8 operations were pure point group operations)
 out of a pool of 16 trial point group operations.


The dynamic configuration has the point symmetry C_4v.


Analysis of structural, dynamic, and magnetic symmetry:
=====================================================================
 Subroutine PRICEL returns:
 Original cell was already a primitive cell.
 

 Routine SETGRP: Setting up the symmetry group for a 
 simple tetragonal supercell.


 Subroutine GETGRP returns: Found  8 space group operations
 (whereof  8 operations were pure point group operations)
 out of a pool of 16 trial point group operations.


The overall configuration has the point symmetry C_4v.


 Subroutine INISYM returns: Found  8 space group operations
 (whereof  8 operations are pure point group operations),
 and found     1 'primitive' translations


----------------------------------------------------------------------------------------

                                     Primitive cell                                     

  volume of cell :     163.0000

  direct lattice vectors                    reciprocal lattice vectors
     3.767753527  0.000000000  0.000000000     0.265410142  0.000000000  0.000000000
     0.000000000  3.767753527  0.000000000     0.000000000  0.265410142  0.000000000
     0.000000000  0.000000000 11.482134615     0.000000000  0.000000000  0.087091820

  length of vectors
     3.767753527  3.767753527 11.482134615     0.265410142  0.265410142  0.087091820

  position of ions in fractional coordinates (direct lattice)
     0.000000000  0.500000000  0.166704746
     0.000000000  0.500000000  0.499304648
     0.000000000  0.500000000  0.832523703
     0.500000000  0.500000000  0.006499588
     0.500000000  0.500000000  0.341094990
     0.500000000  0.500000000  0.663368415
     0.500000000  0.000000000  0.166704746
     0.500000000  0.000000000  0.499304648
     0.500000000  0.000000000  0.832523703
     0.000000000  0.000000000  0.997435122
     0.000000000  0.000000000  0.328698832
     0.000000000  0.000000000  0.665836858

  ion indices of the primitive-cell ions
   primitive index   ion index
                 1           1
                 2           2
                 3           3
                 4           4
                 5           5
                 6           6
                 7           7
                 8           8
                 9           9
                10          10
                11          11
                12          12

----------------------------------------------------------------------------------------

 
 
 KPOINTS: pymatgen with grid density = 8800 / numb

Automatic generation of k-mesh.
 Grid dimensions read from file:
 generate k-points for:   13   13    4

 Generating k-lattice:

  Cartesian coordinates                     Fractional coordinates (reciprocal lattice)
     0.020416165  0.000000000  0.000000000     0.076923077  0.000000000  0.000000000
     0.000000000  0.020416165  0.000000000     0.000000000  0.076923077  0.000000000
     0.000000000  0.000000000  0.021772955     0.000000000  0.000000000  0.250000000

  Length of vectors
     0.020416165  0.020416165  0.021772955

  Shift w.r.t. Gamma in fractional coordinates (k-lattice)
     0.000000000  0.000000000  0.000000000

 
 Subroutine IBZKPT returns following result:
 ===========================================
 
 Found     84 irreducible k-points:
 
 Following reciprocal coordinates:
            Coordinates               Weight
  0.000000  0.000000  0.000000      1.000000
  0.076923  0.000000  0.000000      4.000000
  0.153846  0.000000  0.000000      4.000000
  0.230769  0.000000  0.000000      4.000000
  0.307692  0.000000  0.000000      4.000000
  0.384615  0.000000  0.000000      4.000000
  0.461538  0.000000  0.000000      4.000000
  0.076923  0.076923  0.000000      4.000000
  0.153846  0.076923  0.000000      8.000000
  0.230769  0.076923  0.000000      8.000000
  0.307692  0.076923  0.000000      8.000000
  0.384615  0.076923  0.000000      8.000000
  0.461538  0.076923  0.000000      8.000000
  0.153846  0.153846  0.000000      4.000000
  0.230769  0.153846  0.000000      8.000000
  0.307692  0.153846  0.000000      8.000000
  0.384615  0.153846  0.000000      8.000000
  0.461538  0.153846  0.000000      8.000000
  0.230769  0.230769  0.000000      4.000000
  0.307692  0.230769  0.000000      8.000000
  0.384615  0.230769  0.000000      8.000000
  0.461538  0.230769  0.000000      8.000000
  0.307692  0.307692  0.000000      4.000000
  0.384615  0.307692  0.000000      8.000000
  0.461538  0.307692  0.000000      8.000000
  0.384615  0.384615  0.000000      4.000000
  0.461538  0.384615  0.000000      8.000000
  0.461538  0.461538  0.000000      4.000000
  0.000000  0.000000  0.250000      2.000000
  0.076923  0.000000  0.250000      8.000000
  0.153846  0.000000  0.250000      8.000000
  0.230769  0.000000  0.250000      8.000000
  0.307692  0.000000  0.250000      8.000000
  0.384615  0.000000  0.250000      8.000000
  0.461538  0.000000  0.250000      8.000000
  0.076923  0.076923  0.250000      8.000000
  0.153846  0.076923  0.250000     16.000000
  0.230769  0.076923  0.250000     16.000000
  0.307692  0.076923  0.250000     16.000000
  0.384615  0.076923  0.250000     16.000000
  0.461538  0.076923  0.250000     16.000000
  0.153846  0.153846  0.250000      8.000000
  0.230769  0.153846  0.250000     16.000000
  0.307692  0.153846  0.250000     16.000000
  0.384615  0.153846  0.250000     16.000000
  0.461538  0.153846  0.250000     16.000000
  0.230769  0.230769  0.250000      8.000000
  0.307692  0.230769  0.250000     16.000000
  0.384615  0.230769  0.250000     16.000000
  0.461538  0.230769  0.250000     16.000000
  0.307692  0.307692  0.250000      8.000000
  0.384615  0.307692  0.250000     16.000000
  0.461538  0.307692  0.250000     16.000000
  0.384615  0.384615  0.250000      8.000000
  0.461538  0.384615  0.250000     16.000000
  0.461538  0.461538  0.250000      8.000000
  0.000000  0.000000  0.500000      1.000000
  0.076923  0.000000  0.500000      4.000000
  0.153846  0.000000  0.500000      4.000000
  0.230769  0.000000  0.500000      4.000000
  0.307692  0.000000  0.500000      4.000000
  0.384615  0.000000  0.500000      4.000000
  0.461538  0.000000  0.500000      4.000000
  0.076923  0.076923  0.500000      4.000000
  0.153846  0.076923  0.500000      8.000000
  0.230769  0.076923  0.500000      8.000000
  0.307692  0.076923  0.500000      8.000000
  0.384615  0.076923  0.500000      8.000000
  0.461538  0.076923  0.500000      8.000000
  0.153846  0.153846  0.500000      4.000000
  0.230769  0.153846  0.500000      8.000000
  0.307692  0.153846  0.500000      8.000000
  0.384615  0.153846  0.500000      8.000000
  0.461538  0.153846  0.500000      8.000000
  0.230769  0.230769  0.500000      4.000000
  0.307692  0.230769  0.500000      8.000000
  0.384615  0.230769  0.500000      8.000000
  0.461538  0.230769  0.500000      8.000000
  0.307692  0.307692  0.500000      4.000000
  0.384615  0.307692  0.500000      8.000000
  0.461538  0.307692  0.500000      8.000000
  0.384615  0.384615  0.500000      4.000000
  0.461538  0.384615  0.500000      8.000000
  0.461538  0.461538  0.500000      4.000000
 
 Following cartesian coordinates:
            Coordinates               Weight
  0.000000  0.000000  0.000000      1.000000
  0.020416  0.000000  0.000000      4.000000
  0.040832  0.000000  0.000000      4.000000
  0.061248  0.000000  0.000000      4.000000
  0.081665  0.000000  0.000000      4.000000
  0.102081  0.000000  0.000000      4.000000
  0.122497  0.000000  0.000000      4.000000
  0.020416  0.020416  0.000000      4.000000
  0.040832  0.020416  0.000000      8.000000
  0.061248  0.020416  0.000000      8.000000
  0.081665  0.020416  0.000000      8.000000
  0.102081  0.020416  0.000000      8.000000
  0.122497  0.020416  0.000000      8.000000
  0.040832  0.040832  0.000000      4.000000
  0.061248  0.040832  0.000000      8.000000
  0.081665  0.040832  0.000000      8.000000
  0.102081  0.040832  0.000000      8.000000
  0.122497  0.040832  0.000000      8.000000
  0.061248  0.061248  0.000000      4.000000
  0.081665  0.061248  0.000000      8.000000
  0.102081  0.061248  0.000000      8.000000
  0.122497  0.061248  0.000000      8.000000
  0.081665  0.081665  0.000000      4.000000
  0.102081  0.081665  0.000000      8.000000
  0.122497  0.081665  0.000000      8.000000
  0.102081  0.102081  0.000000      4.000000
  0.122497  0.102081  0.000000      8.000000
  0.122497  0.122497  0.000000      4.000000
  0.000000  0.000000  0.021773      2.000000
  0.020416  0.000000  0.021773      8.000000
  0.040832  0.000000  0.021773      8.000000
  0.061248  0.000000  0.021773      8.000000
  0.081665  0.000000  0.021773      8.000000
  0.102081  0.000000  0.021773      8.000000
  0.122497  0.000000  0.021773      8.000000
  0.020416  0.020416  0.021773      8.000000
  0.040832  0.020416  0.021773     16.000000
  0.061248  0.020416  0.021773     16.000000
  0.081665  0.020416  0.021773     16.000000
  0.102081  0.020416  0.021773     16.000000
  0.122497  0.020416  0.021773     16.000000
  0.040832  0.040832  0.021773      8.000000
  0.061248  0.040832  0.021773     16.000000
  0.081665  0.040832  0.021773     16.000000
  0.102081  0.040832  0.021773     16.000000
  0.122497  0.040832  0.021773     16.000000
  0.061248  0.061248  0.021773      8.000000
  0.081665  0.061248  0.021773     16.000000
  0.102081  0.061248  0.021773     16.000000
  0.122497  0.061248  0.021773     16.000000
  0.081665  0.081665  0.021773      8.000000
  0.102081  0.081665  0.021773     16.000000
  0.122497  0.081665  0.021773     16.000000
  0.102081  0.102081  0.021773      8.000000
  0.122497  0.102081  0.021773     16.000000
  0.122497  0.122497  0.021773      8.000000
  0.000000  0.000000  0.043546      1.000000
  0.020416  0.000000  0.043546      4.000000
  0.040832  0.000000  0.043546      4.000000
  0.061248  0.000000  0.043546      4.000000
  0.081665  0.000000  0.043546      4.000000
  0.102081  0.000000  0.043546      4.000000
  0.122497  0.000000  0.043546      4.000000
  0.020416  0.020416  0.043546      4.000000
  0.040832  0.020416  0.043546      8.000000
  0.061248  0.020416  0.043546      8.000000
  0.081665  0.020416  0.043546      8.000000
  0.102081  0.020416  0.043546      8.000000
  0.122497  0.020416  0.043546      8.000000
  0.040832  0.040832  0.043546      4.000000
  0.061248  0.040832  0.043546      8.000000
  0.081665  0.040832  0.043546      8.000000
  0.102081  0.040832  0.043546      8.000000
  0.122497  0.040832  0.043546      8.000000
  0.061248  0.061248  0.043546      4.000000
  0.081665  0.061248  0.043546      8.000000
  0.102081  0.061248  0.043546      8.000000
  0.122497  0.061248  0.043546      8.000000
  0.081665  0.081665  0.043546      4.000000
  0.102081  0.081665  0.043546      8.000000
  0.122497  0.081665  0.043546      8.000000
  0.102081  0.102081  0.043546      4.000000
  0.122497  0.102081  0.043546      8.000000
  0.122497  0.122497  0.043546      4.000000
 


--------------------------------------------------------------------------------------------------------




 Dimension of arrays:
   k-points           NKPTS =     84   k-points in BZ     NKDIM =     84   number of bands    NBANDS=    128
   number of dos      NEDOS =    301   number of ions     NIONS =     12
   non local maximal  LDIM  =      6   non local SUM 2l+1 LMDIM =     18
   total plane-waves  NPLWV =  70560
   max r-space proj   IRMAX =      1   max aug-charges    IRDMAX=  26415
   dimension x,y,z NGX =    28 NGY =   28 NGZ =   90
   dimension x,y,z NGXF=    56 NGYF=   56 NGZF=  180
   support grid    NGXF=    56 NGYF=   56 NGZF=  180
   ions per type =               9   3
   NGX,Y,Z   is equivalent  to a cutoff of  12.35, 12.35, 13.03 a.u.
   NGXF,Y,Z  is equivalent  to a cutoff of  24.71, 24.71, 26.06 a.u.

 SYSTEM =  unknown system                          
 POSCAR =  Fe9 Pt3                                 

 Startparameter for this run:
   NWRITE =      2    write-flag & timer
   PREC   = accura    normal or accurate (medium, high low for compatibility)
   ISTART =      0    job   : 0-new  1-cont  2-samecut
   ICHARG =      2    charge: 1-file 2-atom 10-const
   ISPIN  =      2    spin polarized calculation?
   LNONCOLLINEAR =      F non collinear calculations
   LSORBIT =      F    spin-orbit coupling
   INIWAV =      1    electr: 0-lowe 1-rand  2-diag
   LASPH  =      F    aspherical Exc in radial PAW
 Electronic Relaxation 1
   ENCUT  =  520.0 eV  38.22 Ry    6.18 a.u.   7.01  7.01 21.35*2*pi/ulx,y,z
   ENINI  =  520.0     initial cutoff
   ENAUG  =  578.3 eV  augmentation charge cutoff
   NELM   =    200;   NELMIN=  2; NELMDL=  0     # of ELM steps 
   EDIFF  = 0.1E-05   stopping-criterion for ELM
   LREAL  =      F    real-space projection
   NLSPLINE    = F    spline interpolate recip. space projectors
   LCOMPAT=      F    compatible to vasp.4.4
   GGA_COMPAT  = T    GGA compatible to vasp.4.4-vasp.4.6
   LMAXPAW     = -100 max onsite density
   LMAXMIX     =    2 max onsite mixed and CHGCAR
   VOSKOWN=      0    Vosko Wilk Nusair interpolation
   ROPT   =    0.00000   0.00000
 Ionic relaxation
   EDIFFG = -.1E-01   stopping-criterion for IOM
   NSW    =    100    number of steps for IOM
   NBLOCK =      1;   KBLOCK =    100    inner block; outer block 
   IBRION =      2    ionic relax: 0-MD 1-quasi-New 2-CG
   NFREE  =      1    steps in history (QN), initial steepest desc. (CG)
   ISIF   =      4    stress and relaxation
   IWAVPR =     11    prediction:  0-non 1-charg 2-wave 3-comb
   ISYM   =      2    0-nonsym 1-usesym 2-fastsym
   LCORR  =      T    Harris-Foulkes like correction to forces

   POTIM  = 0.5000    time-step for ionic-motion
   TEIN   =    0.0    initial temperature
   TEBEG  =    0.0;   TEEND  =   0.0 temperature during run
   SMASS  =  -3.00    Nose mass-parameter (am)
   estimated Nose-frequenzy (Omega)   =  0.10E-29 period in steps = 0.13E+47 mass=  -0.324E-27a.u.
   SCALEE = 1.0000    scale energy and forces
   NPACO  =    256;   APACO  = 10.0  distance and # of slots for P.C.
   PSTRESS=    0.0 pullay stress

  Mass of Ions in am
   POMASS =  55.85195.08
  Ionic Valenz
   ZVAL   =  14.00 10.00
  Atomic Wigner-Seitz radii
   RWIGS  =  -1.00 -1.00
  virtual crystal weights 
   VCA    =   1.00  1.00
   NELECT =     156.0000    total number of electrons
   NUPDOWN=      -1.0000    fix difference up-down

 DOS related values:
   EMIN   =  10.00;   EMAX   =-10.00  energy-range for DOS
   EFERMI =   0.00;   METHOD = LEGACY      
   ISMEAR =     1;   SIGMA  =   0.20  broadening in eV -4-tet -1-fermi 0-gaus

 Electronic relaxation 2 (details)
   IALGO  =     58    algorithm
   LDIAG  =      T    sub-space diagonalisation (order eigenvalues)
   LSUBROT=      F    optimize rotation matrix (better conditioning)
   TURBO    =      0    0=normal 1=particle mesh
   IRESTART =      0    0=no restart 2=restart with 2 vectors
   NREBOOT  =      0    no. of reboots
   NMIN     =      0    reboot dimension
   EREF     =   0.00    reference energy to select bands
   IMIX   =      4    mixing-type and parameters
     AMIX     =   0.40;   BMIX     =  1.00
     AMIX_MAG =   1.60;   BMIX_MAG =  1.00
     AMIN     =   0.10
     WC   =   100.;   INIMIX=   1;  MIXPRE=   1;  MAXMIX= -45

 Intra band minimization:
   WEIMIN = 0.0010     energy-eigenvalue tresh-hold
   EBREAK =  0.20E-08  absolut break condition
   DEPER  =   0.30     relativ break condition  

   TIME   =   0.40     timestep for ELM

  volume/ion in A,a.u.               =      13.58        91.66
  Fermi-wavevector in a.u.,A,eV,Ry     =   1.613320  3.048733 35.413260  2.602801
  Thomas-Fermi vector in A             =   2.708408
 
 Write flags
   LWAVE        =      F    write WAVECAR
   LDOWNSAMPLE  =      F    k-point downsampling of WAVECAR
   LCHARG       =      T    write CHGCAR
   LVTOT        =      F    write LOCPOT, total local potential
   LVHAR        =      F    write LOCPOT, Hartree potential only
   WRT_POTENTIAL= false  ! write potential to hdf5 file
   LELF         =      F    write electronic localiz. function (ELF)
   LORBIT       =     11    0 simple, 1 ext, 2 COOP (PROOUT), +10 PAW based schemes


 Dipole corrections
   LMONO      =      F    monopole corrections only (constant potential shift)
   LDIPOL     =      F    correct potential (dipole corrections)
   IDIPOL     =      0    1-x, 2-y, 3-z, 4-all directions 
   EPSILON    =  1.0000000 bulk dielectric constant
   LVACPOTAV  =      F  vacuum potentials using an averaging scheme for the charge density
   VACPOTFLAT =  0.1000000 required flatness to determine vacuum potential
 Exchange correlation treatment:
   GGA     = PE    functional components
   XC_C    = 1    coefficients multiplying the functional components
   LIBXC   =     F    Libxc                    
   VOSKOWN =     0    Vosko Wilk Nusair interpolation
   LHFCALC =     F    Hartree Fock is set to
   LHFONE  =     F    Hartree Fock one center treatment
   AEXX    =    0.0000 exact exchange contribution

 Parameters of functionals:
   PE:
     No parameter
 
 Van der Waals corrections
   IVDW    =     0    specifies the selected vdW correction

 Linear response parameters
   LEPSILON=     F    determine dielectric tensor
   LRPA    =     F    only Hartree local field effects (RPA)
   LNABLA  =     F    use nabla operator in PAW spheres
   LVEL    =     F    velocity operator in full k-point grid
   CSHIFT  =0.1000    complex shift for real part using Kramers Kronig
   OMEGAMAX=  -1.0    maximum frequency
   DEG_THRESHOLD= 0.2000000E-02 threshold for treating states as degnerate
   RTIME   =   -0.100 relaxation time in fs
  (WPLASMAI=    0.000 imaginary part of plasma frequency in eV, 0.658/RTIME)
   DFIELD  = 0.0000000 0.0000000 0.0000000 field for delta impulse in time
 
  Optional k-point grid parameters
   LKPOINTS_OPT  =     F    use optional k-point grid
   KPOINTS_OPT_MODE=     1    mode for optional k-point grid
 
 Orbital magnetization related:
   ORBITALMAG=     F  switch on orbital magnetization
   LCHIMAG   =     F  perturbation theory with respect to B field
   DQ        =  0.001000  dq finite difference perturbation B field
   LLRAUG    =     F  two centre corrections for induced B field
   LBONE     =     F  B-component reconstruction in AE one-centre
   LVGVCALC  =     T  calculate vGv susceptibility
   LVGVAPPL  =     F  apply vGv susceptibility instead of pGv for G=0

 Random number generation:
   RANDOM_GENERATOR = DEFAULT
   PCG_SEED         = not used


--------------------------------------------------------------------------------------------------------


 conjugate gradient relaxation of ions
 charge density and potential will be updated during run
 spin polarized calculation
 Conjugate gradient for all bands (Freysoldt, et al. PRB 79, 241103 (2009))
 preconditioned conjugated gradient                                        
 perform sub-space diagonalisation
    before iterative eigenvector-optimisation
 modified Broyden-mixing scheme, WC =      100.0
 initial mixing is a Kerker type mixing with AMIX =  0.4000 and BMIX =      1.0000
 Hartree-type preconditioning will be used
 using additional bands           50
 reciprocal scheme for non local part
 use partial core corrections
 no Harris-corrections to forces 
 use gradient corrections 
 use of overlap-Matrix (Vanderbilt PP)
 Methfessel and Paxton  Order N= 1 SIGMA  =   0.20


--------------------------------------------------------------------------------------------------------


  energy-cutoff  :      520.00
  volume of cell :      163.00
      direct lattice vectors                 reciprocal lattice vectors
     3.767753527  0.000000000  0.000000000     0.265410142  0.000000000  0.000000000
     0.000000000  3.767753527  0.000000000     0.000000000  0.265410142  0.000000000
     0.000000000  0.000000000 11.482134615     0.000000000  0.000000000  0.087091820

  length of vectors
     3.767753527  3.767753527 11.482134615     0.265410142  0.265410142  0.087091820


 
 k-points in units of 2pi/SCALE and weight: pymatgen with grid density = 8800 / numb
   0.00000000  0.00000000  0.00000000       0.001
   0.02041616  0.00000000  0.00000000       0.006
   0.04083233  0.00000000  0.00000000       0.006
   0.06124849  0.00000000  0.00000000       0.006
   0.08166466  0.00000000  0.00000000       0.006
   0.10208082  0.00000000  0.00000000       0.006
   0.12249699  0.00000000  0.00000000       0.006
   0.02041616  0.02041616  0.00000000       0.006
   0.04083233  0.02041616  0.00000000       0.012
   0.06124849  0.02041616  0.00000000       0.012
   0.08166466  0.02041616  0.00000000       0.012
   0.10208082  0.02041616  0.00000000       0.012
   0.12249699  0.02041616  0.00000000       0.012
   0.04083233  0.04083233  0.00000000       0.006
   0.06124849  0.04083233  0.00000000       0.012
   0.08166466  0.04083233  0.00000000       0.012
   0.10208082  0.04083233  0.00000000       0.012
   0.12249699  0.04083233  0.00000000       0.012
   0.06124849  0.06124849  0.00000000       0.006
   0.08166466  0.06124849  0.00000000       0.012
   0.10208082  0.06124849  0.00000000       0.012
   0.12249699  0.06124849  0.00000000       0.012
   0.08166466  0.08166466  0.00000000       0.006
   0.10208082  0.08166466  0.00000000       0.012
   0.12249699  0.08166466  0.00000000       0.012
   0.10208082  0.10208082  0.00000000       0.006
   0.12249699  0.10208082  0.00000000       0.012
   0.12249699  0.12249699  0.00000000       0.006
   0.00000000  0.00000000  0.02177295       0.003
   0.02041616  0.00000000  0.02177295       0.012
   0.04083233  0.00000000  0.02177295       0.012
   0.06124849  0.00000000  0.02177295       0.012
   0.08166466  0.00000000  0.02177295       0.012
   0.10208082  0.00000000  0.02177295       0.012
   0.12249699  0.00000000  0.02177295       0.012
   0.02041616  0.02041616  0.02177295       0.012
   0.04083233  0.02041616  0.02177295       0.024
   0.06124849  0.02041616  0.02177295       0.024
   0.08166466  0.02041616  0.02177295       0.024
   0.10208082  0.02041616  0.02177295       0.024
   0.12249699  0.02041616  0.02177295       0.024
   0.04083233  0.04083233  0.02177295       0.012
   0.06124849  0.04083233  0.02177295       0.024
   0.08166466  0.04083233  0.02177295       0.024
   0.10208082  0.04083233  0.02177295       0.024
   0.12249699  0.04083233  0.02177295       0.024
   0.06124849  0.06124849  0.02177295       0.012
   0.08166466  0.06124849  0.02177295       0.024
   0.10208082  0.06124849  0.02177295       0.024
   0.12249699  0.06124849  0.02177295       0.024
   0.08166466  0.08166466  0.02177295       0.012
   0.10208082  0.08166466  0.02177295       0.024
   0.12249699  0.08166466  0.02177295       0.024
   0.10208082  0.10208082  0.02177295       0.012
   0.12249699  0.10208082  0.02177295       0.024
   0.12249699  0.12249699  0.02177295       0.012
   0.00000000  0.00000000  0.04354591       0.001
   0.02041616  0.00000000  0.04354591       0.006
   0.04083233  0.00000000  0.04354591       0.006
   0.06124849  0.00000000  0.04354591       0.006
   0.08166466  0.00000000  0.04354591       0.006
   0.10208082  0.00000000  0.04354591       0.006
   0.12249699  0.00000000  0.04354591       0.006
   0.02041616  0.02041616  0.04354591       0.006
   0.04083233  0.02041616  0.04354591       0.012
   0.06124849  0.02041616  0.04354591       0.012
   0.08166466  0.02041616  0.04354591       0.012
   0.10208082  0.02041616  0.04354591       0.012
   0.12249699  0.02041616  0.04354591       0.012
   0.04083233  0.04083233  0.04354591       0.006
   0.06124849  0.04083233  0.04354591       0.012
   0.08166466  0.04083233  0.04354591       0.012
   0.10208082  0.04083233  0.04354591       0.012
   0.12249699  0.04083233  0.04354591       0.012
   0.06124849  0.06124849  0.04354591       0.006
   0.08166466  0.06124849  0.04354591       0.012
   0.10208082  0.06124849  0.04354591       0.012
   0.12249699  0.06124849  0.04354591       0.012
   0.08166466  0.08166466  0.04354591       0.006
   0.10208082  0.08166466  0.04354591       0.012
   0.12249699  0.08166466  0.04354591       0.012
   0.10208082  0.10208082  0.04354591       0.006
   0.12249699  0.10208082  0.04354591       0.012
   0.12249699  0.12249699  0.04354591       0.006
 
 k-points in reciprocal lattice and weights: pymatgen with grid density = 8800 / numb
   0.00000000  0.00000000  0.00000000       0.001
   0.07692308  0.00000000  0.00000000       0.006
   0.15384615  0.00000000  0.00000000       0.006
   0.23076923  0.00000000  0.00000000       0.006
   0.30769231  0.00000000  0.00000000       0.006
   0.38461538  0.00000000  0.00000000       0.006
   0.46153846  0.00000000  0.00000000       0.006
   0.07692308  0.07692308  0.00000000       0.006
   0.15384615  0.07692308  0.00000000       0.012
   0.23076923  0.07692308  0.00000000       0.012
   0.30769231  0.07692308  0.00000000       0.012
   0.38461538  0.07692308  0.00000000       0.012
   0.46153846  0.07692308  0.00000000       0.012
   0.15384615  0.15384615  0.00000000       0.006
   0.23076923  0.15384615  0.00000000       0.012
   0.30769231  0.15384615  0.00000000       0.012
   0.38461538  0.15384615  0.00000000       0.012
   0.46153846  0.15384615  0.00000000       0.012
   0.23076923  0.23076923  0.00000000       0.006
   0.30769231  0.23076923  0.00000000       0.012
   0.38461538  0.23076923  0.00000000       0.012
   0.46153846  0.23076923  0.00000000       0.012
   0.30769231  0.30769231  0.00000000       0.006
   0.38461538  0.30769231  0.00000000       0.012
   0.46153846  0.30769231  0.00000000       0.012
   0.38461538  0.38461538  0.00000000       0.006
   0.46153846  0.38461538  0.00000000       0.012
   0.46153846  0.46153846  0.00000000       0.006
   0.00000000  0.00000000  0.25000000       0.003
   0.07692308  0.00000000  0.25000000       0.012
   0.15384615  0.00000000  0.25000000       0.012
   0.23076923  0.00000000  0.25000000       0.012
   0.30769231  0.00000000  0.25000000       0.012
   0.38461538  0.00000000  0.25000000       0.012
   0.46153846  0.00000000  0.25000000       0.012
   0.07692308  0.07692308  0.25000000       0.012
   0.15384615  0.07692308  0.25000000       0.024
   0.23076923  0.07692308  0.25000000       0.024
   0.30769231  0.07692308  0.25000000       0.024
   0.38461538  0.07692308  0.25000000       0.024
   0.46153846  0.07692308  0.25000000       0.024
   0.15384615  0.15384615  0.25000000       0.012
   0.23076923  0.15384615  0.25000000       0.024
   0.30769231  0.15384615  0.25000000       0.024
   0.38461538  0.15384615  0.25000000       0.024
   0.46153846  0.15384615  0.25000000       0.024
   0.23076923  0.23076923  0.25000000       0.012
   0.30769231  0.23076923  0.25000000       0.024
   0.38461538  0.23076923  0.25000000       0.024
   0.46153846  0.23076923  0.25000000       0.024
   0.30769231  0.30769231  0.25000000       0.012
   0.38461538  0.30769231  0.25000000       0.024
   0.46153846  0.30769231  0.25000000       0.024
   0.38461538  0.38461538  0.25000000       0.012
   0.46153846  0.38461538  0.25000000       0.024
   0.46153846  0.46153846  0.25000000       0.012
   0.00000000  0.00000000  0.50000000       0.001
   0.07692308  0.00000000  0.50000000       0.006
   0.15384615  0.00000000  0.50000000       0.006
   0.23076923  0.00000000  0.50000000       0.006
   0.30769231  0.00000000  0.50000000       0.006
   0.38461538  0.00000000  0.50000000       0.006
   0.46153846  0.00000000  0.50000000       0.006
   0.07692308  0.07692308  0.50000000       0.006
   0.15384615  0.07692308  0.50000000       0.012
   0.23076923  0.07692308  0.50000000       0.012
   0.30769231  0.07692308  0.50000000       0.012
   0.38461538  0.07692308  0.50000000       0.012
   0.46153846  0.07692308  0.50000000       0.012
   0.15384615  0.15384615  0.50000000       0.006
   0.23076923  0.15384615  0.50000000       0.012
   0.30769231  0.15384615  0.50000000       0.012
   0.38461538  0.15384615  0.50000000       0.012
   0.46153846  0.15384615  0.50000000       0.012
   0.23076923  0.23076923  0.50000000       0.006
   0.30769231  0.23076923  0.50000000       0.012
   0.38461538  0.23076923  0.50000000       0.012
   0.46153846  0.23076923  0.50000000       0.012
   0.30769231  0.30769231  0.50000000       0.006
   0.38461538  0.30769231  0.50000000       0.012
   0.46153846  0.30769231  0.50000000       0.012
   0.38461538  0.38461538  0.50000000       0.006
   0.46153846  0.38461538  0.50000000       0.012
   0.46153846  0.46153846  0.50000000       0.006
 
 position of ions in fractional coordinates (direct lattice) 
   0.00000000  0.50000000  0.16670475
   0.00000000  0.50000000  0.49930465
   0.00000000  0.50000000  0.83252370
   0.50000000  0.50000000  0.00649959
   0.50000000  0.50000000  0.34109499
   0.50000000  0.50000000  0.66336842
   0.50000000  0.00000000  0.16670475
   0.50000000  0.00000000  0.49930465
   0.50000000  0.00000000  0.83252370
   0.00000000  0.00000000  0.99743512
   0.00000000  0.00000000  0.32869883
   0.00000000  0.00000000  0.66583686
 
 position of ions in cartesian coordinates  (Angst):
   0.00000000  1.88387676  1.91412634
   0.00000000  1.88387676  5.73308318
   0.00000000  1.88387676  9.55914923
   1.88387676  1.88387676  0.07462915
   1.88387676  1.88387676  3.91649860
   1.88387676  1.88387676  7.61688544
   1.88387676  0.00000000  1.91412634
   1.88387676  0.00000000  5.73308318
   1.88387676  0.00000000  9.55914923
   0.00000000  0.00000000 11.45268434
   0.00000000  0.00000000  3.77416423
   0.00000000  0.00000000  7.64522843
 


--------------------------------------------------------------------------------------------------------


 k-point     1 :   0.0000 0.0000 0.0000  plane waves:    4343
 k-point     2 :   0.0769 0.0000 0.0000  plane waves:    4362
 k-point     3 :   0.1538 0.0000 0.0000  plane waves:    4382
 k-point     4 :   0.2308 0.0000 0.0000  plane waves:    4358
 k-point     5 :   0.3077 0.0000 0.0000  plane waves:    4374
 k-point     6 :   0.3846 0.0000 0.0000  plane waves:    4384
 k-point     7 :   0.4615 0.0000 0.0000  plane waves:    4376
 k-point     8 :   0.0769 0.0769 0.0000  plane waves:    4360
 k-point     9 :   0.1538 0.0769 0.0000  plane waves:    4391
 k-point    10 :   0.2308 0.0769 0.0000  plane waves:    4381
 k-point    11 :   0.3077 0.0769 0.0000  plane waves:    4375
 k-point    12 :   0.3846 0.0769 0.0000  plane waves:    4397
 k-point    13 :   0.4615 0.0769 0.0000  plane waves:    4403
 k-point    14 :   0.1538 0.1538 0.0000  plane waves:    4372
 k-point    15 :   0.2308 0.1538 0.0000  plane waves:    4386
 k-point    16 :   0.3077 0.1538 0.0000  plane waves:    4385
 k-point    17 :   0.3846 0.1538 0.0000  plane waves:    4402
 k-point    18 :   0.4615 0.1538 0.0000  plane waves:    4407
 k-point    19 :   0.2308 0.2308 0.0000  plane waves:    4394
 k-point    20 :   0.3077 0.2308 0.0000  plane waves:    4384
 k-point    21 :   0.3846 0.2308 0.0000  plane waves:    4396
 k-point    22 :   0.4615 0.2308 0.0000  plane waves:    4412
 k-point    23 :   0.3077 0.3077 0.0000  plane waves:    4410
 k-point    24 :   0.3846 0.3077 0.0000  plane waves:    4404
 k-point    25 :   0.4615 0.3077 0.0000  plane waves:    4414
 k-point    26 :   0.3846 0.3846 0.0000  plane waves:    4388
 k-point    27 :   0.4615 0.3846 0.0000  plane waves:    4395
 k-point    28 :   0.4615 0.4615 0.0000  plane waves:    4382
 k-point    29 :   0.0000 0.0000 0.2500  plane waves:    4335
 k-point    30 :   0.0769 0.0000 0.2500  plane waves:    4348
 k-point    31 :   0.1538 0.0000 0.2500  plane waves:    4361
 k-point    32 :   0.2308 0.0000 0.2500  plane waves:    4369
 k-point    33 :   0.3077 0.0000 0.2500  plane waves:    4376
 k-point    34 :   0.3846 0.0000 0.2500  plane waves:    4384
 k-point    35 :   0.4615 0.0000 0.2500  plane waves:    4392
 k-point    36 :   0.0769 0.0769 0.2500  plane waves:    4357
 k-point    37 :   0.1538 0.0769 0.2500  plane waves:    4364
 k-point    38 :   0.2308 0.0769 0.2500  plane waves:    4370
 k-point    39 :   0.3077 0.0769 0.2500  plane waves:    4380
 k-point    40 :   0.3846 0.0769 0.2500  plane waves:    4395
 k-point    41 :   0.4615 0.0769 0.2500  plane waves:    4401
 k-point    42 :   0.1538 0.1538 0.2500  plane waves:    4382
 k-point    43 :   0.2308 0.1538 0.2500  plane waves:    4382
 k-point    44 :   0.3077 0.1538 0.2500  plane waves:    4389
 k-point    45 :   0.3846 0.1538 0.2500  plane waves:    4399
 k-point    46 :   0.4615 0.1538 0.2500  plane waves:    4404
 k-point    47 :   0.2308 0.2308 0.2500  plane waves:    4379
 k-point    48 :   0.3077 0.2308 0.2500  plane waves:    4401
 k-point    49 :   0.3846 0.2308 0.2500  plane waves:    4403
 k-point    50 :   0.4615 0.2308 0.2500  plane waves:    4404
 k-point    51 :   0.3077 0.3077 0.2500  plane waves:    4403
 k-point    52 :   0.3846 0.3077 0.2500  plane waves:    4405
 k-point    53 :   0.4615 0.3077 0.2500  plane waves:    4398
 k-point    54 :   0.3846 0.3846 0.2500  plane waves:    4395
 k-point    55 :   0.4615 0.3846 0.2500  plane waves:    4395
 k-point    56 :   0.4615 0.4615 0.2500  plane waves:    4404
 k-point    57 :   0.0000 0.0000 0.5000  plane waves:    4346
 k-point    58 :   0.0769 0.0000 0.5000  plane waves:    4336
 k-point    59 :   0.1538 0.0000 0.5000  plane waves:    4344
 k-point    60 :   0.2308 0.0000 0.5000  plane waves:    4366
 k-point    61 :   0.3077 0.0000 0.5000  plane waves:    4378
 k-point    62 :   0.3846 0.0000 0.5000  plane waves:    4370
 k-point    63 :   0.4615 0.0000 0.5000  plane waves:    4394
 k-point    64 :   0.0769 0.0769 0.5000  plane waves:    4338
 k-point    65 :   0.1538 0.0769 0.5000  plane waves:    4348
 k-point    66 :   0.2308 0.0769 0.5000  plane waves:    4372
 k-point    67 :   0.3077 0.0769 0.5000  plane waves:    4390
 k-point    68 :   0.3846 0.0769 0.5000  plane waves:    4390
 k-point    69 :   0.4615 0.0769 0.5000  plane waves:    4402
 k-point    70 :   0.1538 0.1538 0.5000  plane waves:    4376
 k-point    71 :   0.2308 0.1538 0.5000  plane waves:    4376
 k-point    72 :   0.3077 0.1538 0.5000  plane waves:    4392
 k-point    73 :   0.3846 0.1538 0.5000  plane waves:    4404
 k-point    74 :   0.4615 0.1538 0.5000  plane waves:    4394
 k-point    75 :   0.2308 0.2308 0.5000  plane waves:    4398
 k-point    76 :   0.3077 0.2308 0.5000  plane waves:    4396
 k-point    77 :   0.3846 0.2308 0.5000  plane waves:    4412
 k-point    78 :   0.4615 0.2308 0.5000  plane waves:    4410
 k-point    79 :   0.3077 0.3077 0.5000  plane waves:    4392
 k-point    80 :   0.3846 0.3077 0.5000  plane waves:    4410
 k-point    81 :   0.4615 0.3077 0.5000  plane waves:    4406
 k-point    82 :   0.3846 0.3846 0.5000  plane waves:    4416
 k-point    83 :   0.4615 0.3846 0.5000  plane waves:    4402
 k-point    84 :   0.4615 0.4615 0.5000  plane waves:    4386

 maximum and minimum number of plane-waves per node :      4416     4335

 maximum number of plane-waves:      4416
 maximum index in each direction: 
   IXMAX=    7   IYMAX=    7   IZMAX=   21
   IXMIN=   -7   IYMIN=   -7   IZMIN=  -21


 serial   3D FFT for wavefunctions
 parallel 3D FFT for charge:
    minimum data exchange during FFTs selected (reduces bandwidth)


 total amount of memory used by VASP MPI-rank0   295971. kBytes
=======================================================================

   base      :      30000. kBytes
   nonl-proj :     107679. kBytes
   fftplans  :        955. kBytes
   grid      :       7297. kBytes
   one-center:        373. kBytes
   wavefun   :     149667. kBytes
 
     INWAV:  cpu time      0.0000: real time      0.0000
 Broyden mixing: mesh for mixing (old mesh)
   NGX = 15   NGY = 15   NGZ = 43
  (NGX  = 56   NGY  = 56   NGZ  =180)
  gives a total of   9675 points

 initial charge density was supplied:
 charge density of overlapping atoms calculated
 number of electron     156.0000000 magnetization       8.5680000
 charge density for first step will be calculated from the start-wavefunctions


--------------------------------------------------------------------------------------------------------


 Maximum index for augmentation-charges         1060 (set IRDMAX)


--------------------------------------------------------------------------------------------------------


 First call to EWALD:  gamma=   0.324
 Maximum number of real-space cells 4x 4x 2
 Maximum number of reciprocal cells 2x 2x 5

    FEWALD:  cpu time      0.0023: real time      0.0023


--------------------------------------- Ionic step        1  -------------------------------------------




--------------------------------------- Iteration      1(   1)  ---------------------------------------


    POTLOK:  cpu time      0.0304: real time      0.0306
    SETDIJ:  cpu time      0.0167: real time      0.0169
    TRIAL :  cpu time      6.1736: real time      6.2334
    CORREC:  cpu time      0.0026: real time      0.0026
    --------------------------------------------
      LOOP:  cpu time      6.3491: real time      6.4124

 eigenvalue-minimisations  : 43008
 total energy-change (2. order) : 0.1772908E+04  (-0.9173768E+04)
 number of electron     156.0000000 magnetization       8.5680000
 augmentation part      156.0000000 magnetization       8.5680000

 Free energy of the ion-electron system (eV)
  ---------------------------------------------------
  alpha Z        PSCENC =      1044.11122432
  Ewald energy   TEWEN  =    -17821.25629998
  -Hartree energ DENC   =     -6134.33017067
  -exchange      EXHF   =         0.00000000
  -V(xc)+E(xc)   XCENC  =       655.36430137
  PAW double counting   =     20093.85294715   -20817.76712947
  entropy T*S    EENTRO =         0.00113550
  eigenvalues    EBANDS =       448.82937304
  atomic energy  EATOM  =     24304.10294433
  ---------------------------------------------------
  free energy    TOTEN  =      1772.90832559 eV

  energy without entropy =     1772.90719010  energy(sigma->0) =     1772.90794709


--------------------------------------------------------------------------------------------------------




--------------------------------------- Iteration      1(   2)  ---------------------------------------


    TRIAL :  cpu time      6.1257: real time      6.1710
    CORREC:  cpu time      0.0025: real time      0.0026
    --------------------------------------------
      LOOP:  cpu time      6.1377: real time      6.1959

 eigenvalue-minimisations  : 43008
 total energy-change (2. order) :-0.1766806E+04  (-0.1677831E+04)
 number of electron     156.0000000 magnetization       8.5680000
 augmentation part      156.0000000 magnetization       8.5680000

 Free energy of the ion-electron system (eV)
  ---------------------------------------------------
  alpha Z        PSCENC =      1044.11122432
  Ewald energy   TEWEN  =    -17821.25629998
  -Hartree energ DENC   =     -6134.33017067
  -exchange      EXHF   =         0.00000000
  -V(xc)+E(xc)   XCENC  =       655.36430137
  PAW double counting   =     20093.85294715   -20817.76712947
  entropy T*S    EENTRO =        -0.00112253
  eigenvalues    EBANDS =     -1317.97468985
  atomic energy  EATOM  =     24304.10294433
  ---------------------------------------------------
  free energy    TOTEN  =         6.10200467 eV

  energy without entropy =        6.10312721  energy(sigma->0) =        6.10237885


--------------------------------------------------------------------------------------------------------




--------------------------------------- Iteration      1(   3)  ---------------------------------------


    TRIAL :  cpu time      7.4163: real time      7.4710
    CORREC:  cpu time      0.0025: real time      0.0025
    --------------------------------------------
      LOOP:  cpu time      7.4408: real time      7.4959

 eigenvalue-minimisations  : 50592
 total energy-change (2. order) :-0.1092034E+03  (-0.1077806E+03)
 number of electron     156.0000000 magnetization       8.5680000
 augmentation part      156.0000000 magnetization       8.5680000

 Free energy of the ion-electron system (eV)
  ---------------------------------------------------
  alpha Z        PSCENC =      1044.11122432
  Ewald energy   TEWEN  =    -17821.25629998
  -Hartree energ DENC   =     -6134.33017067
  -exchange      EXHF   =         0.00000000
  -V(xc)+E(xc)   XCENC  =       655.36430137
  PAW double counting   =     20093.85294715   -20817.76712947
  entropy T*S    EENTRO =        -0.00060568
  eigenvalues    EBANDS =     -1427.17858533
  atomic energy  EATOM  =     24304.10294433
  ---------------------------------------------------
  free energy    TOTEN  =      -103.10137395 eV

  energy without entropy =     -103.10076827  energy(sigma->0) =     -103.10117206


--------------------------------------------------------------------------------------------------------




--------------------------------------- Iteration      1(   4)  ---------------------------------------


    TRIAL :  cpu time      9.9322: real time      9.9908
    CORREC:  cpu time      0.0025: real time      0.0026
    --------------------------------------------
      LOOP:  cpu time      9.9560: real time     10.0150

 eigenvalue-minimisations  : 45856
 total energy-change (2. order) :-0.1639069E+01  (-0.1638737E+01)
 number of electron     156.0000000 magnetization       8.5680000
 augmentation part      156.0000000 magnetization       8.5680000

 Free energy of the ion-electron system (eV)
  ---------------------------------------------------
  alpha Z        PSCENC =      1044.11122432
  Ewald energy   TEWEN  =    -17821.25629998
  -Hartree energ DENC   =     -6134.33017067
  -exchange      EXHF   =         0.00000000
  -V(xc)+E(xc)   XCENC  =       655.36430137
  PAW double counting   =     20093.85294715   -20817.76712947
  entropy T*S    EENTRO =        -0.00050416
  eigenvalues    EBANDS =     -1428.81775598
  atomic energy  EATOM  =     24304.10294433
  ---------------------------------------------------
  free energy    TOTEN  =      -104.74044308 eV

  energy without entropy =     -104.73993893  energy(sigma->0) =     -104.74027503


--------------------------------------------------------------------------------------------------------




--------------------------------------- Iteration      1(   5)  ---------------------------------------


    TRIAL :  cpu time      7.6878: real time      7.7432
    CORREC:  cpu time      0.0027: real time      0.0027
    CHARGE:  cpu time      0.1915: real time      0.1933
    --------------------------------------------
      LOOP:  cpu time      7.8902: real time      7.9615

 eigenvalue-minimisations  : 52992
 total energy-change (2. order) :-0.3320498E-01  (-0.3320403E-01)
 number of electron     156.0000102 magnetization       7.5380300
 augmentation part       79.2622555 magnetization       5.3922910

 Free energy of the ion-electron system (eV)
  ---------------------------------------------------
  alpha Z        PSCENC =      1044.11122432
  Ewald energy   TEWEN  =    -17821.25629998
  -Hartree energ DENC   =     -6134.33017067
  -exchange      EXHF   =         0.00000000
  -V(xc)+E(xc)   XCENC  =       655.36430137
  PAW double counting   =     20093.85294715   -20817.76712947
  entropy T*S    EENTRO =        -0.00050441
  eigenvalues    EBANDS =     -1428.85096071
  atomic energy  EATOM  =     24304.10294433
  ---------------------------------------------------
  free energy    TOTEN  =      -104.77364806 eV

  energy without entropy =     -104.77314365  energy(sigma->0) =     -104.77347992


--------------------------------------------------------------------------------------------------------




--------------------------------------- Iteration      1(   6)  ---------------------------------------


    POTLOK:  cpu time      0.0243: real time      0.0246
    SETDIJ:  cpu time      0.0268: real time      0.0270
    TRIAL :  cpu time      2.9582: real time      2.9869
    CORREC:  cpu time      1.1431: real time      1.1540
    CHARGE:  cpu time      0.1824: real time      0.1833
    --------------------------------------------
      LOOP:  cpu time      4.3432: real time      4.3976

 eigenvalue-minimisations  :     0
 total energy-change (2. order) : 0.5938245E+02  (-0.1303242E+02)
 number of electron     156.0000103 magnetization       7.8480178
 augmentation part       79.9701900 magnetization       5.5277544

 Free energy of the ion-electron system (eV)
  ---------------------------------------------------
  alpha Z        PSCENC =      1044.11122432
  Ewald energy   TEWEN  =    -17821.25629998
  -Hartree energ DENC   =     -4991.32962508
  -exchange      EXHF   =         0.00000000
  -V(xc)+E(xc)   XCENC  =       608.23278977
  PAW double counting   =     20666.17713780   -21327.55958841
  entropy T*S    EENTRO =        -0.00075732
  eigenvalues    EBANDS =     -2527.86927240
  atomic energy  EATOM  =     24304.10294433
  ---------------------------------------------------
  free energy    TOTEN  =       -45.39119406 eV

  energy without entropy =      -45.39043674  energy(sigma->0) =      -45.39094162


--------------------------------------------------------------------------------------------------------




--------------------------------------- Iteration      1(   7)  ---------------------------------------


    POTLOK:  cpu time      0.0230: real time      0.0231
    SETDIJ:  cpu time      0.0080: real time      0.0080
    TRIAL :  cpu time      2.9947: real time      3.0230
    CORREC:  cpu time      1.1347: real time      1.1464
    CHARGE:  cpu time      0.1807: real time      0.1818
    --------------------------------------------
      LOOP:  cpu time      4.3501: real time      4.4049

 eigenvalue-minimisations  :     0
 total energy-change (2. order) :-0.1713143E+02  (-0.1553909E+02)
 number of electron     156.0000106 magnetization       8.2044168
 augmentation part       82.4099176 magnetization       5.8668883

 Free energy of the ion-electron system (eV)
  ---------------------------------------------------
  alpha Z        PSCENC =      1044.11122432
  Ewald energy   TEWEN  =    -17821.25629998
  -Hartree energ DENC   =     -5075.74236636
  -exchange      EXHF   =         0.00000000
  -V(xc)+E(xc)   XCENC  =       612.28268602
  PAW double counting   =     20766.28410713   -21445.52501433
  entropy T*S    EENTRO =        -0.00053473
  eigenvalues    EBANDS =     -2446.77914651
  atomic energy  EATOM  =     24304.10294433
  ---------------------------------------------------
  free energy    TOTEN  =       -62.52262270 eV

  energy without entropy =      -62.52208796  energy(sigma->0) =      -62.52244445


--------------------------------------------------------------------------------------------------------




--------------------------------------- Iteration      1(   8)  ---------------------------------------


    POTLOK:  cpu time      0.0231: real time      0.0233
    SETDIJ:  cpu time      0.0082: real time      0.0082
    TRIAL :  cpu time      2.9942: real time      3.0232
    CORREC:  cpu time      1.1255: real time      1.1373
    CHARGE:  cpu time      0.1743: real time      0.1752
    --------------------------------------------
      LOOP:  cpu time      4.3488: real time      4.3910

 eigenvalue-minimisations  :     0
 total energy-change (2. order) :-0.1654631E+02  (-0.8089888E+01)
 number of electron     156.0000108 magnetization       7.9330412
 augmentation part       84.0882586 magnetization       5.8590677

 Free energy of the ion-electron system (eV)
  ---------------------------------------------------
  alpha Z        PSCENC =      1044.11122432
  Ewald energy   TEWEN  =    -17821.25629998
  -Hartree energ DENC   =     -5428.79109155
  -exchange      EXHF   =         0.00000000
  -V(xc)+E(xc)   XCENC  =       626.82323171
  PAW double counting   =     21291.57187312   -22034.75080037
  entropy T*S    EENTRO =         0.01309670
  eigenvalues    EBANDS =     -2060.87948300
  atomic energy  EATOM  =     24304.10294433
  ---------------------------------------------------
  free energy    TOTEN  =       -79.06893615 eV

  energy without entropy =      -79.08203285  energy(sigma->0) =      -79.07330172


--------------------------------------------------------------------------------------------------------




--------------------------------------- Iteration      1(   9)  ---------------------------------------


    POTLOK:  cpu time      0.0232: real time      0.0234
    SETDIJ:  cpu time      0.0078: real time      0.0079
    TRIAL :  cpu time      2.9280: real time      2.9564
    CORREC:  cpu time      1.1394: real time      1.1508
    CHARGE:  cpu time      0.1701: real time      0.1711
    --------------------------------------------
      LOOP:  cpu time      4.2915: real time      4.3328

 eigenvalue-minimisations  :     0
 total energy-change (2. order) :-0.7350112E+01  (-0.1391235E+01)
 number of electron     156.0000108 magnetization       7.8508516
 augmentation part       84.4129231 magnetization       5.8486296

 Free energy of the ion-electron system (eV)
  ---------------------------------------------------
  alpha Z        PSCENC =      1044.11122432
  Ewald energy   TEWEN  =    -17821.25629998
  -Hartree energ DENC   =     -5681.20798100
  -exchange      EXHF   =         0.00000000
  -V(xc)+E(xc)   XCENC  =       637.12245126
  PAW double counting   =     21774.76894396   -22562.46983098
  entropy T*S    EENTRO =         0.02412646
  eigenvalues    EBANDS =     -1781.60359709
  atomic energy  EATOM  =     24304.10294433
  ---------------------------------------------------
  free energy    TOTEN  =       -86.41904848 eV

  energy without entropy =      -86.44317494  energy(sigma->0) =      -86.42709064


--------------------------------------------------------------------------------------------------------




--------------------------------------- Iteration      1(  10)  ---------------------------------------


    POTLOK:  cpu time      0.0231: real time      0.0234
    SETDIJ:  cpu time      0.0073: real time      0.0074
    TRIAL :  cpu time      3.0556: real time      3.0850
    CORREC:  cpu time      1.1330: real time      1.1447
    CHARGE:  cpu time      0.1669: real time      0.1678
    --------------------------------------------
      LOOP:  cpu time      4.3945: real time      4.4512

 eigenvalue-minimisations  :     0
 total energy-change (2. order) :-0.1215231E+01  (-0.1460936E+01)
 number of electron     156.0000107 magnetization       8.1188567
 augmentation part       84.6874401 magnetization       6.0148945

 Free energy of the ion-electron system (eV)
  ---------------------------------------------------
  alpha Z        PSCENC =      1044.11122432
  Ewald energy   TEWEN  =    -17821.25629998
  -Hartree energ DENC   =     -5728.09580114
  -exchange      EXHF   =         0.00000000
  -V(xc)+E(xc)   XCENC  =       639.08863411
  PAW double counting   =     21871.80813248   -22664.36896302
  entropy T*S    EENTRO =         0.02955798
  eigenvalues    EBANDS =     -1733.04827670
  atomic energy  EATOM  =     24304.10294433
  ---------------------------------------------------
  free energy    TOTEN  =       -87.63427914 eV

  energy without entropy =      -87.66383712  energy(sigma->0) =      -87.64413180


--------------------------------------------------------------------------------------------------------




--------------------------------------- Iteration      1(  11)  ---------------------------------------


    POTLOK:  cpu time      0.0233: real time      0.0235
    SETDIJ:  cpu time      0.0080: real time      0.0081
    TRIAL :  cpu time      2.9393: real time      2.9693
    CORREC:  cpu time      1.1345: real time      1.1463
    CHARGE:  cpu time      0.1689: real time      0.1699
    --------------------------------------------
      LOOP:  cpu time      4.2821: real time      4.3402

 eigenvalue-minimisations  :     0
 total energy-change (2. order) :-0.1575030E+01  (-0.9164461E+00)
 number of electron     156.0000107 magnetization       8.3698319
 augmentation part       84.7414583 magnetization       6.1670971

 Free energy of the ion-electron system (eV)
  ---------------------------------------------------
  alpha Z        PSCENC =      1044.11122432
  Ewald energy   TEWEN  =    -17821.25629998
  -Hartree energ DENC   =     -5759.58892328
  -exchange      EXHF   =         0.00000000
  -V(xc)+E(xc)   XCENC  =       640.63102389
  PAW double counting   =     21945.15455961   -22736.31139488
  entropy T*S    EENTRO =         0.03088957
  eigenvalues    EBANDS =     -1706.08200138
  atomic energy  EATOM  =     24304.10294433
  ---------------------------------------------------
  free energy    TOTEN  =       -89.20930939 eV

  energy without entropy =      -89.24019896  energy(sigma->0) =      -89.21960591


--------------------------------------------------------------------------------------------------------




--------------------------------------- Iteration      1(  12)  ---------------------------------------


    POTLOK:  cpu time      0.0231: real time      0.0233
    SETDIJ:  cpu time      0.0074: real time      0.0075
    TRIAL :  cpu time      2.9379: real time      2.9674
    CORREC:  cpu time      1.2240: real time      1.2366
    CHARGE:  cpu time      0.1701: real time      0.1710
    --------------------------------------------
      LOOP:  cpu time      4.3855: real time      4.4290

 eigenvalue-minimisations  :     0
 total energy-change (2. order) :-0.1025657E+01  (-0.1538634E+01)
 number of electron     156.0000106 magnetization       8.3592691
 augmentation part       84.7174308 magnetization       6.2039812

 Free energy of the ion-electron system (eV)
  ---------------------------------------------------
  alpha Z        PSCENC =      1044.11122432
  Ewald energy   TEWEN  =    -17821.25629998
  -Hartree energ DENC   =     -5757.65854889
  -exchange      EXHF   =         0.00000000
  -V(xc)+E(xc)   XCENC  =       640.83033753
  PAW double counting   =     21947.70452366   -22732.48406914
  entropy T*S    EENTRO =         0.04014230
  eigenvalues    EBANDS =     -1715.61596781
  atomic energy  EATOM  =     24304.10294433
  ---------------------------------------------------
  free energy    TOTEN  =       -90.23496642 eV

  energy without entropy =      -90.27510872  energy(sigma->0) =      -90.24834719


--------------------------------------------------------------------------------------------------------




--------------------------------------- Iteration      1(  13)  ---------------------------------------


    POTLOK:  cpu time      0.0232: real time      0.0235
    SETDIJ:  cpu time      0.0076: real time      0.0077
    TRIAL :  cpu time      2.9298: real time      2.9591
    CORREC:  cpu time      1.1351: real time      1.1471
    CHARGE:  cpu time      0.1637: real time      0.1646
    --------------------------------------------
      LOOP:  cpu time      4.2821: real time      4.3249

 eigenvalue-minimisations  :     0
 total energy-change (2. order) :-0.1598733E+01  (-0.2454694E+00)
 number of electron     156.0000106 magnetization       8.2279185
 augmentation part       84.7138936 magnetization       6.1438832

 Free energy of the ion-electron system (eV)
  ---------------------------------------------------
  alpha Z        PSCENC =      1044.11122432
  Ewald energy   TEWEN  =    -17821.25629998
  -Hartree energ DENC   =     -5737.12101536
  -exchange      EXHF   =         0.00000000
  -V(xc)+E(xc)   XCENC  =       640.49888430
  PAW double counting   =     21917.44052969   -22685.76046969
  entropy T*S    EENTRO =         0.03942224
  eigenvalues    EBANDS =     -1753.88963889
  atomic energy  EATOM  =     24304.10294433
  ---------------------------------------------------
  free energy    TOTEN  =       -91.83369898 eV

  energy without entropy =      -91.87312122  energy(sigma->0) =      -91.84683973


--------------------------------------------------------------------------------------------------------




--------------------------------------- Iteration      1(  14)  ---------------------------------------


    POTLOK:  cpu time      0.0229: real time      0.0232
    SETDIJ:  cpu time      0.0080: real time      0.0081
    TRIAL :  cpu time      3.0427: real time      3.0721
    CORREC:  cpu time      1.1367: real time      1.1489
    CHARGE:  cpu time      0.1641: real time      0.1651
    --------------------------------------------
      LOOP:  cpu time      4.3826: real time      4.4406

 eigenvalue-minimisations  :     0
 total energy-change (2. order) :-0.2254746E+00  (-0.4596549E+00)
 number of electron     156.0000106 magnetization       8.3040070
 augmentation part       84.7828233 magnetization       6.2150202

 Free energy of the ion-electron system (eV)
  ---------------------------------------------------
  alpha Z        PSCENC =      1044.11122432
  Ewald energy   TEWEN  =    -17821.25629998
  -Hartree energ DENC   =     -5736.15989842
  -exchange      EXHF   =         0.00000000
  -V(xc)+E(xc)   XCENC  =       640.49679860
  PAW double counting   =     21911.99840953   -22677.29115395
  entropy T*S    EENTRO =         0.02319100
  eigenvalues    EBANDS =     -1758.10062030
  atomic energy  EATOM  =     24304.10294433
  ---------------------------------------------------
  free energy    TOTEN  =       -92.05917363 eV

  energy without entropy =      -92.08236462  energy(sigma->0) =      -92.06690396


--------------------------------------------------------------------------------------------------------




--------------------------------------- Iteration      1(  15)  ---------------------------------------


    POTLOK:  cpu time      0.0232: real time      0.0236
    SETDIJ:  cpu time      0.0073: real time      0.0073
    TRIAL :  cpu time      3.0410: real time      3.0715
    CORREC:  cpu time      1.1319: real time      1.1438
    CHARGE:  cpu time      0.1658: real time      0.1667
    --------------------------------------------
      LOOP:  cpu time      4.3782: real time      4.4358

 eigenvalue-minimisations  :     0
 total energy-change (2. order) :-0.4596618E+00  (-0.2549444E+00)
 number of electron     156.0000105 magnetization       8.4592734
 augmentation part       84.8377476 magnetization       6.3157936

 Free energy of the ion-electron system (eV)
  ---------------------------------------------------
  alpha Z        PSCENC =      1044.11122432
  Ewald energy   TEWEN  =    -17821.25629998
  -Hartree energ DENC   =     -5758.83207295
  -exchange      EXHF   =         0.00000000
  -V(xc)+E(xc)   XCENC  =       641.29098042
  PAW double counting   =     21913.24616826   -22673.44353200
  entropy T*S    EENTRO =         0.01833030
  eigenvalues    EBANDS =     -1741.76143878
  atomic energy  EATOM  =     24304.10294433
  ---------------------------------------------------
  free energy    TOTEN  =       -92.51883538 eV

  energy without entropy =      -92.53716569  energy(sigma->0) =      -92.52494548


--------------------------------------------------------------------------------------------------------




--------------------------------------- Iteration      1(  16)  ---------------------------------------


    POTLOK:  cpu time      0.0230: real time      0.0233
    SETDIJ:  cpu time      0.0078: real time      0.0079
    TRIAL :  cpu time      2.9822: real time      3.0109
    CORREC:  cpu time      1.1316: real time      1.1439
    CHARGE:  cpu time      0.1634: real time      0.1643
    --------------------------------------------
      LOOP:  cpu time      4.3164: real time      4.3736

 eigenvalue-minimisations  :     0
 total energy-change (2. order) :-0.2352208E+00  (-0.1924467E+00)
 number of electron     156.0000105 magnetization       8.3844062
 augmentation part       84.9045609 magnetization       6.2973878

 Free energy of the ion-electron system (eV)
  ---------------------------------------------------
  alpha Z        PSCENC =      1044.11122432
  Ewald energy   TEWEN  =    -17821.25629998
  -Hartree energ DENC   =     -5773.43246492
  -exchange      EXHF   =         0.00000000
  -V(xc)+E(xc)   XCENC  =       641.83795769
  PAW double counting   =     21918.79445745   -22676.91123007
  entropy T*S    EENTRO =         0.01621108
  eigenvalues    EBANDS =     -1730.01897532
  atomic energy  EATOM  =     24304.10294433
  ---------------------------------------------------
  free energy    TOTEN  =       -92.75405621 eV

  energy without entropy =      -92.77026729  energy(sigma->0) =      -92.75945990


--------------------------------------------------------------------------------------------------------




--------------------------------------- Iteration      1(  17)  ---------------------------------------


    POTLOK:  cpu time      0.0232: real time      0.0234
    SETDIJ:  cpu time      0.0078: real time      0.0078
    TRIAL :  cpu time      2.9760: real time      3.0052
    CORREC:  cpu time      1.1494: real time      1.1601
    CHARGE:  cpu time      0.1616: real time      0.1626
    --------------------------------------------
      LOOP:  cpu time      4.3275: real time      4.3818

 eigenvalue-minimisations  :     0
 total energy-change (2. order) :-0.1882824E+00  (-0.2641887E-01)
 number of electron     156.0000105 magnetization       8.3581911
[...]
     66       8.4648      1.00000
     67       8.5126      1.00000
     68       8.5433      1.00000
     69       8.5976      1.00002
     70       8.6764      1.00019
     71       8.7674      1.00167
     72       8.8621      1.00957
     73       8.8999      1.01628
     74       9.0803      1.00299
     75       9.0897      0.99245
     76       9.2628      0.45189
     77       9.2780      0.38618
     78       9.3473      0.14092
     79       9.5793     -0.02111
     80       9.6311     -0.01081
     81       9.6999     -0.00326
     82       9.7320     -0.00175
     83      10.0066     -0.00000
     84      10.2109     -0.00000
     85      10.2688     -0.00000
     86      10.3159     -0.00000
     87      10.4551     -0.00000
     88      10.7448     -0.00000
     89      10.8546     -0.00000
     90      10.9224     -0.00000
     91      11.0194     -0.00000
     92      11.0382     -0.00000
     93      11.3053     -0.00000
     94      11.3846     -0.00000
     95      11.5658     -0.00000
     96      11.7493     -0.00000
     97      11.9357     -0.00000
     98      12.0081     -0.00000
     99      12.4146     -0.00000
    100      14.0770      0.00000
    101      15.8978      0.00000
    102      15.9346      0.00000
    103      15.9994      0.00000
    104      16.9600      0.00000
    105      17.0954      0.00000
    106      17.5769      0.00000
    107      17.8177      0.00000
    108      18.1598      0.00000
    109      18.3233      0.00000
    110      18.7105      0.00000
    111      18.7791      0.00000
    112      22.8514      0.00000
    113      23.0545      0.00000
    114      23.4957      0.00000
    115      23.5543      0.00000
    116      23.7589      0.00000
    117      23.9278      0.00000
    118      24.6221      0.00000
    119      24.7727      0.00000
    120      26.4979      0.00000
    121      26.5301      0.00000
    122      26.5783      0.00000
    123      26.9748      0.00000
    124      27.4810      0.00000
    125      27.7996      0.00000
    126      27.9955      0.00000
    127      28.2408      0.00000
    128      28.7002      0.00000


--------------------------------------------------------------------------------------------------------


 soft charge-density along one line, spin component           1
         0         1         2         3         4         5         6         7         8         9
 total charge-density along one line
 
 soft charge-density along one line, spin component           2
         0         1         2         3         4         5         6         7         8         9
 total charge-density along one line
 
 pseudopotential strength for first ion, spin component:           1
-43.349   0.000  -0.000   6.926  -0.000   0.000  -0.000   0.004
  0.000 -43.384   0.000  -0.000   6.940  -0.000   0.000   0.000
 -0.000   0.000 -43.306   0.000  -0.000   6.908   0.000   0.000
  6.926  -0.000   0.000   5.842  -0.000   0.000   0.000  -0.002
 -0.000   6.940  -0.000  -0.000   5.838  -0.000  -0.000  -0.000
  0.000  -0.000   6.908   0.000  -0.000   5.846  -0.000  -0.000
 -0.000   0.000   0.000   0.000  -0.000  -0.000  -0.790   0.000
  0.004   0.000   0.000  -0.002  -0.000  -0.000   0.000  -0.798
 -0.000   0.005   0.000   0.000  -0.001  -0.000   0.000   0.000
  0.000  -0.000  -0.003  -0.000   0.000   0.004   0.000  -0.000
 -0.000  -0.003  -0.000   0.000   0.003   0.000  -0.000  -0.000
 -0.000   0.000   0.000   0.000  -0.000  -0.000  -1.325   0.000
  0.004   0.000   0.000  -0.001  -0.000  -0.000   0.000  -1.332
 -0.000   0.005   0.000   0.000  -0.001  -0.000   0.000   0.000
  0.000  -0.000  -0.003  -0.000   0.000   0.004   0.000  -0.000
 -0.000  -0.003  -0.000   0.000   0.003   0.000  -0.000  -0.000
 -0.000   0.001   0.000  -0.000   0.002   0.000   0.000  -0.000
 -0.000   0.003   0.000  -0.000   0.005   0.000   0.000  -0.000
 pseudopotential strength for first ion, spin component:           2
-45.634   0.000  -0.000   7.887  -0.000   0.000   0.000   0.006
  0.000 -45.701   0.000  -0.000   7.913  -0.000  -0.000   0.000
 -0.000   0.000 -45.500   0.000  -0.000   7.832   0.000  -0.000
  7.887  -0.000   0.000   5.569  -0.000   0.000  -0.000  -0.004
 -0.000   7.913  -0.000  -0.000   5.563  -0.000   0.000  -0.000
  0.000  -0.000   7.832   0.000  -0.000   5.580  -0.000   0.000
  0.000  -0.000   0.000  -0.000   0.000  -0.000  -2.543   0.000
  0.006   0.000  -0.000  -0.004  -0.000   0.000   0.000  -2.723
 -0.000   0.016   0.000   0.000  -0.007  -0.000   0.000   0.000
 -0.000  -0.000   0.027   0.000   0.000  -0.012   0.000  -0.000
 -0.000   0.010   0.000   0.000  -0.004   0.000  -0.000  -0.000
 -0.000  -0.000   0.000   0.000   0.000  -0.000  -3.050   0.000
  0.006   0.000  -0.000  -0.003  -0.000   0.000   0.000  -3.226
 -0.000   0.016   0.000   0.000  -0.007  -0.000   0.000   0.000
 -0.000   0.000   0.027   0.000  -0.000  -0.012   0.000  -0.000
 -0.000   0.010  -0.000   0.000  -0.004   0.000  -0.000  -0.000
 -0.000  -0.006  -0.000  -0.000   0.004   0.000   0.000  -0.000
 -0.000  -0.014   0.000  -0.000   0.009   0.000   0.000  -0.000
 total augmentation occupancy for first ion, spin component:           1
  1.992   0.000   0.000  -0.028  -0.000   0.000   0.000  -0.007  -0.000   0.000  -0.000   0.000   0.007   0.000   0.000   0.000
  0.000   1.992   0.000  -0.000  -0.029   0.000   0.000   0.000  -0.005   0.000   0.003   0.000   0.000   0.005   0.000  -0.003
  0.000   0.000   1.992   0.000  -0.000  -0.028   0.000   0.000  -0.000  -0.001   0.000  -0.000   0.000   0.000   0.001   0.000
 -0.028  -0.000   0.000   0.171   0.000   0.000   0.000  -0.020   0.000   0.000   0.000   0.000   0.027   0.000   0.000   0.000
 -0.000  -0.029  -0.000   0.000   0.171  -0.000   0.000   0.000  -0.012   0.000   0.020   0.000   0.000   0.005   0.000  -0.032
  0.000   0.000  -0.028   0.000  -0.000   0.151  -0.000  -0.000   0.000   0.016   0.000   0.000  -0.000   0.000  -0.042   0.000
  0.000   0.000   0.000   0.000   0.000  -0.000   2.881   0.000   0.000   0.000  -0.000  -1.494   0.000   0.000  -0.000   0.000
 -0.007   0.000   0.000  -0.020   0.000  -0.000   0.000   2.949   0.000   0.000   0.000   0.000  -1.883   0.000   0.000  -0.000
 -0.000  -0.005  -0.000   0.000  -0.012   0.000   0.000   0.000   3.354   0.000   0.219   0.000   0.000  -1.855   0.000  -0.129
  0.000   0.000  -0.001   0.000   0.000   0.016   0.000   0.000   0.000   2.697  -0.000  -0.000   0.000   0.000  -1.384   0.000
 -0.000   0.003   0.000   0.000   0.020   0.000  -0.000   0.000   0.219  -0.000   3.004  -0.000   0.000  -0.128   0.000  -1.644
  0.000   0.000  -0.000   0.000   0.000   0.000  -1.494   0.000   0.000  -0.000  -0.000   1.557  -0.000   0.000   0.000  -0.000
  0.007   0.000   0.000   0.027   0.000  -0.000   0.000  -1.883   0.000   0.000   0.000  -0.000   2.067   0.000   0.000  -0.000
  0.000   0.005   0.000   0.000   0.005   0.000   0.000   0.000  -1.855   0.000  -0.128   0.000   0.000   1.659   0.000   0.046
  0.000   0.000   0.001   0.000   0.000  -0.042  -0.000   0.000   0.000  -1.384   0.000   0.000   0.000   0.000   1.445   0.000
  0.000  -0.003   0.000   0.000  -0.032   0.000   0.000  -0.000  -0.129   0.000  -1.644  -0.000  -0.000   0.046   0.000   1.551
  0.000  -0.000   0.000   0.000  -0.001   0.000   0.000   0.000  -0.115   0.000   0.180   0.000   0.000   0.070   0.000  -0.132
  0.000   0.001  -0.000   0.000   0.000  -0.000   0.000   0.000   0.012  -0.000  -0.011   0.000   0.000  -0.006   0.000   0.007
 total augmentation occupancy for first ion, spin component:           2
  0.002   0.000   0.000   0.009   0.000   0.000   0.000   0.002   0.000   0.000   0.000   0.000  -0.002   0.000   0.000   0.000
  0.000   0.002  -0.000   0.000   0.008   0.000   0.000   0.000   0.004   0.000   0.004   0.000   0.000  -0.005   0.000  -0.005
  0.000  -0.000   0.002   0.000   0.000   0.009  -0.000   0.000   0.000   0.011   0.000   0.000  -0.000   0.000  -0.011   0.000
  0.009   0.000   0.000  -0.007   0.000   0.000   0.000   0.021   0.000   0.000  -0.000   0.000  -0.017  -0.000   0.000   0.000
  0.000   0.008   0.000   0.000  -0.003   0.000   0.000   0.000  -0.003   0.000  -0.035   0.000   0.000  -0.009   0.000   0.013
  0.000   0.000   0.009   0.000   0.000  -0.002  -0.000   0.000   0.000  -0.063   0.000   0.000   0.000   0.000   0.011  -0.000
  0.000   0.000  -0.000   0.000   0.000  -0.000  -2.291  -0.000   0.000   0.000   0.000   1.053   0.000   0.000   0.000  -0.000
  0.002   0.000   0.000   0.021   0.000   0.000  -0.000  -2.206   0.000   0.000  -0.000   0.000   0.800   0.000  -0.000  -0.000
  0.000   0.004   0.000   0.000  -0.003   0.000   0.000   0.000  -2.755   0.000  -0.100   0.000  -0.000   1.229   0.000   0.083
  0.000   0.000   0.011   0.000   0.000  -0.063   0.000   0.000   0.000  -2.066   0.000   0.000   0.000   0.000   0.793   0.000
  0.000   0.004   0.000  -0.000  -0.035   0.000   0.000  -0.000  -0.100   0.000  -2.463  -0.000  -0.000   0.084  -0.000   0.956
  0.000   0.000   0.000   0.000   0.000   0.000   1.053   0.000   0.000   0.000  -0.000  -0.308   0.000   0.000   0.000  -0.000
 -0.002   0.000  -0.000  -0.017   0.000   0.000   0.000   0.800  -0.000   0.000  -0.000   0.000  -0.041   0.000   0.000   0.000
  0.000  -0.005   0.000  -0.000  -0.009   0.000   0.000   0.000   1.229   0.000   0.084   0.000   0.000  -0.436   0.000  -0.087
  0.000   0.000  -0.011   0.000   0.000   0.011   0.000  -0.000   0.000   0.793  -0.000   0.000   0.000   0.000  -0.088   0.000
  0.000  -0.005   0.000   0.000   0.013  -0.000  -0.000  -0.000   0.083   0.000   0.956  -0.000   0.000  -0.087   0.000  -0.183
  0.000  -0.001  -0.000   0.000  -0.018   0.000   0.000   0.000   0.018   0.000  -0.053   0.000   0.000  -0.029   0.000   0.044
  0.000   0.000  -0.000   0.000  -0.000   0.000   0.000   0.000  -0.008   0.000   0.006   0.000   0.000   0.002   0.000  -0.001


------------------------ aborting loop because EDIFF is reached ----------------------------------------





 total charge

# of ion       s       p       d       tot
------------------------------------------
    1        0.340   6.304   5.995  12.638
    2        0.337   6.301   6.014  12.652
    3        0.335   6.297   5.988  12.620
    4        0.342   6.307   5.981  12.631
    5        0.341   6.305   5.991  12.637
    6        0.337   6.304   5.989  12.630
    7        0.340   6.304   5.995  12.638
    8        0.337   6.301   6.014  12.652
    9        0.335   6.297   5.988  12.620
   10        0.745   0.637   8.013   9.395
   11        0.750   0.636   8.017   9.403
   12        0.737   0.657   8.011   9.405
--------------------------------------------------
tot          5.276  58.652  77.995 141.923



 magnetization (x)

# of ion       s       p       d       tot
------------------------------------------
    1       -0.015  -0.006  -2.668  -2.689
    2        0.003  -0.012   2.723   2.714
    3        0.011   0.002   2.704   2.717
    4       -0.018  -0.021  -2.684  -2.723
    5        0.015   0.020   2.658   2.694
    6        0.003  -0.015   2.852   2.841
    7       -0.015  -0.006  -2.668  -2.689
    8        0.003  -0.012   2.723   2.714
    9        0.011   0.002   2.704   2.717
   10        0.007   0.015  -0.070  -0.047
   11       -0.008  -0.017   0.072   0.047
   12       -0.041  -0.097   0.413   0.275
--------------------------------------------------
tot         -0.043  -0.146   8.759   8.571
 
    FORLOC:  cpu time      0.0009: real time      0.0010
    FORNL :  cpu time      0.7542: real time      0.7586
    STRESS:  cpu time      4.6451: real time      4.6848
    FORCOR:  cpu time      0.0222: real time      0.0224
    OFIELD:  cpu time      0.0002: real time      0.0002

  FORCE on cell =-STRESS in cart. coord.  units (eV):
  Direction    XX          YY          ZZ          XY          YZ          ZX
  --------------------------------------------------------------------------------------
  Alpha Z  1044.11122  1044.11122  1044.11122
  Ewald   -5928.17600 -5928.17600 -5964.92324    -0.00000     0.00000     0.00000
  Hartree  1939.14701  1939.14701  1906.13223    -0.00000    -0.00000    -0.00000
  E(xc)    -942.47038  -942.47038  -942.41337     0.00000     0.00000     0.00000
  Local     972.34096   972.34096  1049.61994    -0.00000    -0.00000    -0.00000
  n-local  -221.30655  -236.02665  -229.55901    13.57087     0.08927     0.15022
  augment  1441.75230  1441.75230  1437.38414     0.00000    -0.00000     0.00000
  Kinetic  1700.48598  1686.15643  1691.03398     2.53688     0.07247    -0.08719
  Fock        0.00000     0.00000     0.00000     0.00000     0.00000     0.00000
  -------------------------------------------------------------------------------------
  Total      -8.64028    -8.64028    -8.61411     0.00000    -0.00000     0.00000
  in kB     -84.92800   -84.92800   -84.67078     0.00000    -0.00000     0.00000
  external pressure =      -84.84 kB  Pullay stress =        0.00 kB


 VOLUME and BASIS-vectors are now :
 -----------------------------------------------------------------------------
  energy-cutoff  :      520.00
  volume of cell :      163.00
      direct lattice vectors                 reciprocal lattice vectors
     3.767170080  0.000000000  0.000000000     0.265451248  0.000000000  0.000000000
     0.000000000  3.767170080  0.000000000     0.000000000  0.265451248 -0.000000000
     0.000000000  0.000000000 11.485691525     0.000000000 -0.000000000  0.087064849

  length of vectors
     3.767170080  3.767170080 11.485691525     0.265451248  0.265451248  0.087064849


 FORCES acting on ions:
    Electron-Ion                     Ewald-Force                    Non-Local-Force
 -----------------------------------------------------------------------------------------------
   0.201E-13 0.962E-12 0.295E+01   -.685E-14 -.394E-13 -.392E+01   -.162E-18 -.367E-18 0.963E+00
   0.131E-13 0.132E-11 -.198E+02   0.157E-13 -.159E-14 0.201E+02   -.155E-18 0.108E-17 -.285E+00
   0.126E-13 0.156E-11 -.260E+02   0.293E-14 -.923E-14 0.248E+02   -.174E-18 0.188E-17 0.123E+01
   0.109E-11 -.373E-11 0.813E+02   -.247E-13 0.200E-13 -.785E+02   0.216E-17 0.367E-18 -.277E+01
   0.109E-11 -.442E-11 0.879E+02   -.271E-13 0.212E-13 -.853E+02   -.208E-18 0.116E-17 -.259E+01
   0.110E-11 -.435E-11 -.715E+02   0.193E-13 0.572E-13 0.717E+02   0.655E-19 -.108E-18 -.240E+00
   0.108E-11 0.649E-12 0.295E+01   -.183E-13 -.922E-14 -.392E+01   0.202E-18 -.142E-18 0.963E+00
   0.108E-11 -.189E-13 -.198E+02   -.712E-14 0.345E-14 0.201E+02   0.155E-18 0.109E-19 -.285E+00
   0.109E-11 0.558E-12 -.260E+02   0.228E-13 0.235E-13 0.248E+02   -.480E-18 0.489E-18 0.123E+01
   -.183E-13 0.358E-13 0.173E+02   0.407E-13 0.183E-13 -.178E+02   -.185E-19 0.335E-18 0.446E+00
   -.215E-13 -.102E-12 0.782E+01   -.844E-14 -.235E-13 -.806E+01   -.963E-19 -.908E-18 0.307E+00
   -.217E-13 0.528E-13 -.362E+02   -.228E-13 -.612E-13 0.359E+02   0.291E-18 -.436E-19 0.259E+00
 -----------------------------------------------------------------------------------------------
   0.655E-11 -.750E-11 0.783E+00   -.137E-13 -.570E-15 0.270E-12   0.158E-17 0.375E-17 -.779E+00
 
 
 POSITION                                       TOTAL-FORCE (eV/Angst)
 -----------------------------------------------------------------------------------
      0.00000      1.88359      1.91395        -0.000000     -0.000000     -0.000985
      0.00000      1.88359      5.73506        -0.000000      0.000000      0.000776
      0.00000      1.88359      9.56213        -0.000000      0.000000      0.002386
      1.88359      1.88359      0.07476         0.000000     -0.000000     -0.005279
      1.88359      1.88359      3.91772         0.000000     -0.000000     -0.005838
      1.88359      1.88359      7.61961        -0.000000      0.000000      0.007430
      1.88359      0.00000      1.91395        -0.000000     -0.000000     -0.000985
      1.88359      0.00000      5.73506        -0.000000      0.000000      0.000776
      1.88359      0.00000      9.56213        -0.000000      0.000000      0.002386
      0.00000      0.00000     11.45636        -0.000000     -0.000000     -0.005270
      0.00000      0.00000      3.77632        -0.000000      0.000000      0.000366
      0.00000      0.00000      7.64712        -0.000000      0.000000      0.004236
 -----------------------------------------------------------------------------------
    total drift:                                0.000000     -0.000000      0.004086


--------------------------------------------------------------------------------------------------------



  FREE ENERGIE OF THE ION-ELECTRON SYSTEM (eV)
  ---------------------------------------------------
  free  energy   TOTEN  =       -93.10747271 eV

  energy  without entropy=      -93.11453604  energy(sigma->0) =      -93.10982715
 
 d Force = 0.6182963E-05[-0.886E-06, 0.133E-04]  d Energy =-0.1908782E-04 0.253E-04
 d Force =-0.2009882E-02[-0.248E-02,-0.154E-02]  d Ewald  = 0.3929308E-02-0.594E-02


--------------------------------------------------------------------------------------------------------


    POTLOK:  cpu time      0.0315: real time      0.0317


--------------------------------------------------------------------------------------------------------




--------------------------------------------------------------------------------------------------------


  
 reached required accuracy - stopping structural energy minimisation
     LOOP+:  cpu time     58.6428: real time     59.3673
    4ORBIT:  cpu time      0.0000: real time      0.0000



 total charge

# of ion       s       p       d       tot
------------------------------------------
    1        0.340   6.304   5.995  12.638
    2        0.337   6.301   6.014  12.652
    3        0.335   6.297   5.988  12.620
    4        0.342   6.307   5.981  12.631
    5        0.341   6.305   5.991  12.637
    6        0.337   6.304   5.989  12.630
    7        0.340   6.304   5.995  12.638
    8        0.337   6.301   6.014  12.652
    9        0.335   6.297   5.988  12.620
   10        0.745   0.637   8.013   9.395
   11        0.750   0.636   8.017   9.403
   12        0.737   0.657   8.011   9.405
--------------------------------------------------
tot          5.276  58.652  77.995 141.923



 magnetization (x)

# of ion       s       p       d       tot
------------------------------------------
    1       -0.015  -0.006  -2.668  -2.689
    2        0.003  -0.012   2.723   2.714
    3        0.011   0.002   2.704   2.717
    4       -0.018  -0.021  -2.684  -2.723
    5        0.015   0.020   2.658   2.694
    6        0.003  -0.015   2.852   2.841
    7       -0.015  -0.006  -2.668  -2.689
    8        0.003  -0.012   2.723   2.714
    9        0.011   0.002   2.704   2.717
   10        0.007   0.015  -0.070  -0.047
   11       -0.008  -0.017   0.072   0.047
   12       -0.041  -0.097   0.413   0.275
--------------------------------------------------
tot         -0.043  -0.146   8.759   8.571
 

 total amount of memory used by VASP MPI-rank0   295971. kBytes
=======================================================================

   base      :      30000. kBytes
   nonl-proj :     107679. kBytes
   fftplans  :        955. kBytes
   grid      :       7297. kBytes
   one-center:        373. kBytes
   wavefun   :     149667. kBytes
 
  
  
 General timing and accounting informations for this job:
 ========================================================
  
                  Total CPU time used (sec):      517.491
                            User time (sec):      507.419
                          System time (sec):       10.072
                         Elapsed time (sec):      529.237
  
                   Maximum memory used (kb):     1312412.
                   Average memory used (kb):          N/A
  
                          Minor page faults:       321505
                          Major page faults:          957
                 Voluntary context switches:        17048
