       N       E                     dE             d eps       ncg     rms          ort
DAV:   1     0.175976929403E+04    0.17598E+04   -0.91279E+04 10752   0.203E+03
DAV:   2     0.559480224863E+01   -0.17542E+04   -0.16645E+04 10752   0.485E+02
DAV:   3    -0.103290556200E+03   -0.10889E+03   -0.10759E+03 10752   0.129E+02
DAV:   4    -0.104785626157E+03   -0.14951E+01   -0.14948E+01 10752   0.152E+01
DAV:   5    -0.104812029062E+03   -0.26403E-01   -0.26402E-01 10752   0.198E+00
SDA:   6    -0.563400499433E+02    0.48472E+02   -0.26402E-01 10752   0.340E+03 0.000E+00
CGA:   7    -0.687360586502E+02   -0.12396E+02   -0.95879E+01 10752   0.181E+03 0.899E+02
CGA:   8    -0.850609175279E+02   -0.16325E+02   -0.14512E+02 10752   0.550E+02 0.249E+02
CGA:   9    -0.875707297715E+02   -0.25098E+01   -0.27782E+01 10752   0.475E+02-0.442E+01
CGA:  10    -0.887359097480E+02   -0.11652E+01   -0.91776E+00 10752   0.150E+02 0.119E+02
CGA:  11    -0.893444815333E+02   -0.60857E+00   -0.56957E+00 10752   0.212E+02 0.120E+01
CGA:  12    -0.908468837681E+02   -0.15024E+01   -0.14386E+01 10752   0.399E+02 0.711E+00
CGA:  13    -0.913696749122E+02   -0.52279E+00   -0.34780E+00 10752   0.173E+02 0.212E+02
CGA:  14    -0.917022495527E+02   -0.33257E+00   -0.39241E+00 10752   0.413E+01-0.235E+01
CGA:  15    -0.919723052776E+02   -0.27006E+00   -0.27565E+00 10752   0.388E+01-0.277E-01
CGA:  16    -0.923056165115E+02   -0.33331E+00   -0.34034E+00 10752   0.529E+01-0.213E-02
CGA:  17    -0.924889951943E+02   -0.18338E+00   -0.18427E+00 10752   0.912E+00-0.221E-01
CGA:  18    -0.925849375755E+02   -0.95942E-01   -0.96888E-01 10752   0.203E+01 0.103E-01
CGA:  19    -0.926971511158E+02   -0.11221E+00   -0.11288E+00 10752   0.121E+01-0.879E-02
CGA:  20    -0.927636836074E+02   -0.66532E-01   -0.67011E-01 10752   0.299E+00-0.417E-02
CGA:  21    -0.927719633678E+02   -0.82798E-02   -0.83491E-02 10752   0.816E-01-0.122E-02
CGA:  22    -0.927820771404E+02   -0.10114E-01   -0.10110E-01 10752   0.191E+00 0.767E-03
CGA:  23    -0.927913368330E+02   -0.92597E-02   -0.95206E-02 10752   0.108E+00-0.266E-02
CGA:  24    -0.927982189053E+02   -0.68821E-02   -0.68919E-02 10752   0.641E-01 0.243E-03
CGA:  25    -0.928028090659E+02   -0.45902E-02   -0.46486E-02 10752   0.108E+00-0.257E-04
CGA:  26    -0.928136411765E+02   -0.10832E-01   -0.10828E-01 10752   0.669E-01-0.143E-03
CGA:  27    -0.928170304194E+02   -0.33892E-02   -0.34537E-02 10752   0.672E-01-0.798E-03
CGA:  28    -0.928240023364E+02   -0.69719E-02   -0.69729E-02 10752   0.595E-01 0.114E-04
CGA:  29    -0.928262955669E+02   -0.22932E-02   -0.22942E-02 10752   0.222E-01-0.259E-03
CGA:  30    -0.928276401806E+02   -0.13446E-02   -0.13490E-02 10752   0.150E-01-0.131E-03
CGA:  31    -0.928289457477E+02   -0.13056E-02   -0.13042E-02 10752   0.244E-01-0.102E-03
CGA:  32    -0.928304940533E+02   -0.15483E-02   -0.15480E-02 10752   0.655E-02-0.139E-03
CGA:  33    -0.928308433324E+02   -0.34928E-03   -0.34891E-03 10752   0.664E-02-0.832E-05
CGA:  34    -0.928315411326E+02   -0.69780E-03   -0.69756E-03 10752   0.757E-02 0.240E-04
CGA:  35    -0.928319265646E+02   -0.38543E-03   -0.38567E-03 10752   0.454E-02 0.166E-04
CGA:  36    -0.928321586960E+02   -0.23213E-03   -0.23260E-03 10752   0.176E-02 0.406E-05
CGA:  37    -0.928323193815E+02   -0.16069E-03   -0.16065E-03 10752   0.358E-02-0.126E-04
CGA:  38    -0.928326064420E+02   -0.28706E-03   -0.28681E-03 10752   0.141E-02-0.266E-04
CGA:  39    -0.928326762417E+02   -0.69800E-04   -0.69153E-04 10752   0.104E-02-0.120E-04
CGA:  40    -0.928327490211E+02   -0.72779E-04   -0.72363E-04 10752   0.851E-03-0.185E-04
CGA:  41    -0.928328085758E+02   -0.59555E-04   -0.59242E-04 10752   0.821E-03-0.151E-04
CGA:  42    -0.928328465591E+02   -0.37983E-04   -0.37672E-04 10752   0.279E-03-0.655E-05
CGA:  43    -0.928328739246E+02   -0.27365E-04   -0.27296E-04 10752   0.428E-03 0.637E-05
SDA:  44    -0.928328939730E+02   -0.20048E-04   -0.20371E-04 10752   0.851E-04 0.728E-05
CGA:  45    -0.928328965862E+02   -0.26131E-05   -0.27203E-05 10752   0.522E-04 0.309E-05
CGA:  46    -0.928329041697E+02   -0.75836E-05   -0.69844E-05 10752   0.743E-04 0.136E-04
CGA:  47    -0.928329133834E+02   -0.92136E-05   -0.90163E-05 10752   0.796E-04 0.174E-04
CGA:  48    -0.928329167459E+02   -0.33626E-05   -0.37201E-05 10752   0.284E-04 0.826E-05
CGA:  49    -0.928329211194E+02   -0.43734E-05   -0.39901E-05 10752   0.215E-04 0.929E-05
CGA:  50    -0.928329227744E+02   -0.16550E-05   -0.16975E-05 10752   0.354E-04 0.226E-05
CGA:  51    -0.928329269867E+02   -0.42123E-05   -0.41448E-05 10752   0.311E-04 0.335E-05
CGA:  52    -0.928329288694E+02   -0.18827E-05   -0.18859E-05 10752   0.300E-04 0.256E-06
CGA:  53    -0.928329305145E+02   -0.16452E-05   -0.16352E-05 10752   0.121E-04-0.326E-06
CGA:  54    -0.928329316485E+02   -0.11340E-05   -0.11517E-05 10752   0.225E-04-0.723E-06
CGA:  55    -0.928329324633E+02   -0.81486E-06   -0.77834E-06 10752   0.787E-05-0.396E-06
   1 F= -.92832932E+02 E0= -.92837269E+02  d E =-.928329E+02  mag=     7.9020
