       N       E                     dE             d eps       ncg     rms          rms(c)
DAV:   1     0.175976772575E+04    0.17598E+04   -0.83916E+04 43104   0.184E+03
DAV:   2     0.559475981181E+01   -0.17542E+04   -0.16645E+04 43008   0.485E+02
DAV:   3    -0.103296910867E+03   -0.10889E+03   -0.10760E+03 50688   0.129E+02
DAV:   4    -0.104791949217E+03   -0.14950E+01   -0.14947E+01 45824   0.152E+01
DAV:   5    -0.104818352047E+03   -0.26403E-01   -0.26402E-01 52992   0.198E+00    0.428E+01
DAV:   6    -0.105803307416E+03   -0.98496E+00   -0.12244E+02 50656   0.600E+01    0.522E+01
DAV:   7    -0.120977172068E+03   -0.15174E+02   -0.44700E+02 53504   0.675E+01    0.694E+01
DAV:   8    -0.986084186904E+02    0.22369E+02   -0.11317E+02 51936   0.477E+01    0.355E+01
DAV:   9    -0.105057029411E+03   -0.64486E+01   -0.19366E+02 51360   0.379E+01    0.477E+01
DAV:  10    -0.947793957203E+02    0.10278E+02   -0.73877E+01 50688   0.210E+01    0.259E+01
DAV:  11    -0.926025606625E+02    0.21768E+01   -0.27004E+01 52704   0.194E+01    0.173E+01
DAV:  12    -0.933771323108E+02   -0.77457E+00   -0.20381E+01 52960   0.136E+01    0.184E+01
DAV:  13    -0.923041236387E+02    0.10730E+01   -0.12974E+01 52096   0.113E+01    0.788E+00
DAV:  14    -0.923686913555E+02   -0.64568E-01   -0.18938E+00 52736   0.485E+00    0.773E+00
DAV:  15    -0.923370722594E+02    0.31619E-01   -0.64285E-01 50720   0.281E+00    0.646E+00
DAV:  16    -0.923595569471E+02   -0.22485E-01   -0.50950E-02 51904   0.963E-01    0.608E+00
DAV:  17    -0.924964653105E+02   -0.13691E+00   -0.37776E-01 52992   0.170E+00    0.601E+00
DAV:  18    -0.926946576376E+02   -0.19819E+00   -0.93828E-01 51776   0.275E+00    0.541E+00
DAV:  19    -0.928247949181E+02   -0.13014E+00   -0.24471E+00 52544   0.565E+00    0.256E+00
DAV:  20    -0.928222949881E+02    0.24999E-02   -0.18474E-01 49856   0.163E+00    0.158E+00
DAV:  21    -0.928327680457E+02   -0.10473E-01   -0.52513E-02 51680   0.120E+00    0.965E-01
DAV:  22    -0.928366397134E+02   -0.38717E-02   -0.38838E-02 52320   0.792E-01    0.694E-01
DAV:  23    -0.928377748372E+02   -0.11351E-02   -0.82968E-03 51712   0.343E-01    0.446E-01
DAV:  24    -0.928375517836E+02    0.22305E-03   -0.26265E-03 53600   0.237E-01    0.234E-01
DAV:  25    -0.928376965068E+02   -0.14472E-03   -0.97819E-04 51392   0.159E-01    0.147E-01
DAV:  26    -0.928377634382E+02   -0.66931E-04   -0.41000E-04 54080   0.103E-01    0.881E-02
DAV:  27    -0.928377930473E+02   -0.29609E-04   -0.22278E-04 53024   0.646E-02    0.545E-02
DAV:  28    -0.928378247094E+02   -0.31662E-04   -0.50688E-05 52192   0.401E-02    0.421E-02
DAV:  29    -0.928378225045E+02    0.22049E-05   -0.39746E-05 52800   0.282E-02    0.225E-02
DAV:  30    -0.928378202571E+02    0.22475E-05   -0.87665E-06 48224   0.133E-02    0.132E-02
DAV:  31    -0.928378115846E+02    0.86725E-05   -0.92980E-06 36704   0.135E-02    0.446E-03
DAV:  32    -0.928378128500E+02   -0.12654E-05   -0.16197E-06 26304   0.465E-03    0.346E-03
DAV:  33    -0.928378107866E+02    0.20634E-05   -0.30063E-07 25856   0.244E-03    0.278E-03
DAV:  34    -0.928378123279E+02   -0.15413E-05   -0.34358E-07 24544   0.295E-03    0.890E-04
DAV:  35    -0.928378125382E+02   -0.21030E-06   -0.32279E-08 24320   0.757E-04
   1 F= -.92837813E+02 E0= -.92837813E+02  d E =0.000000E+00  mag=     7.9141
