 vasp.6.4.3 19Mar24 (build Mar 26 2024 14:05:37) complex                        
  
 executed on             LinuxIFC date 2024.12.17  01:04:50
 running  128 mpi-ranks, on    1 nodes
 distrk:  each k-point on   32 cores,    4 groups
 distr:  one band on NCORE=   1 cores,   32 groups


--------------------------------------------------------------------------------------------------------


 INCAR:
   ALGO = Normal
   EDIFF = 1e-06
   EDIFFG = -0.01
   ENCUT = 520
   GGA = Pe
   IBRION = -1
   ISIF = 4
   ISMEAR = -5
   ISPIN = 2
   KPAR = 4
   LCHARG = True
   LORBIT = 11
   LREAL = False
   LWAVE = False
   MAGMOM = 1*-2.129 1*2.391 1*2.288 1*-2.171 1*2.266 1*2.453 1*-2.129 1*2.391 1*2.288 1*-0.038 1*0.066 1*0.233
   NELM = 200
   NSW = 0
   PREC = Accurate
   SIGMA = 0.2

 POTCAR:    PAW_PBE Fe_pv 02Aug2007               
 POTCAR:    PAW_PBE Pt 04Feb2005                  
 -----------------------------------------------------------------------------
|                                                                             |
|           W    W    AA    RRRRR   N    N  II  N    N   GGGG   !!!           |
|           W    W   A  A   R    R  NN   N  II  NN   N  G    G  !!!           |
|           W    W  A    A  R    R  N N  N  II  N N  N  G       !!!           |
|           W WW W  AAAAAA  RRRRR   N  N N  II  N  N N  G  GGG   !            |
|           WW  WW  A    A  R   R   N   NN  II  N   NN  G    G                |
|           W    W  A    A  R    R  N    N  II  N    N   GGGG   !!!           |
|                                                                             |
|     For optimal performance we recommend to set                             |
|       NCORE = 2 up to number-of-cores-per-socket                            |
|     NCORE specifies how many cores store one orbital (NPAR=cpu/NCORE).      |
|     This setting can greatly improve the performance of VASP for DFT.       |
|     The default, NCORE=1 might be grossly inefficient on modern             |
|     multi-core architectures or massively parallel machines. Do your        |
|     own testing! More info at https://www.vasp.at/wiki/index.php/NCORE      |
|     Unfortunately you need to use the default for GW and RPA                |
|     calculations (for HF NCORE is supported but not extensively tested      |
|     yet).                                                                   |
|                                                                             |
 -----------------------------------------------------------------------------

 POTCAR:    PAW_PBE Fe_pv 02Aug2007               
   SHA256 =  5d22e414b1f82158bf2c7ecb8b97b28fd0923e48cadc1c3bf74d524558f5dd32 Fe_pv/POTCAR          
   COPYR  = (c) Copyright 02Aug2007 Georg Kresse                                                    
   COPYR  = This file is part of the software VASP. Any use, copying, and all other rights are regul
   COPYR  = If you do not have a valid VASP license, you may not use, copy or distribute this file. 
   VRHFIN =Fe:  3pd7s1                                                                              
   LEXCH  = PE                                                                                      
   EATOM  =  2457.4239 eV,  180.6156 Ry                                                             
                                                                                                    
   TITEL  = PAW_PBE Fe_pv 02Aug2007                                                                 
   LULTRA =        F    use ultrasoft PP ?                                                          
   IUNSCR =        1    unscreen: 0-lin 1-nonlin 2-no                                               
   RPACOR =    1.750    partial core radius                                                         
   POMASS =   55.847; ZVAL   =   14.000    mass and valenz                                          
   RCORE  =    2.200    outmost cutoff radius                                                       
   RWIGS  =    2.200; RWIGS  =    1.164    wigner-seitz radius (au A)                               
   ENMAX  =  293.238; ENMIN  =  219.928 eV                                                          
   ICORE  =        3    local potential                                                             
   LCOR   =        T    correct aug charges                                                         
   LPAW   =        T    paw PP                                                                      
   EAUG   =  578.342                                                                                
   DEXC   =    0.000                                                                                
   RMAX   =    2.249    core radius for proj-oper                                                   
   RAUG   =    1.300    factor for augmentation sphere                                              
   RDEP   =    2.296    radius for radial grids                                                     
   RDEPT  =    1.766    core radius for aug-charge                                                  
                                                                                                    
   Atomic configuration                                                                             
    8 entries                                                                                       
     n  l   j            E        occ.                                                              
     1  0  0.50     -6993.8440   2.0000                                                             
     2  0  0.50      -814.6047   2.0000                                                             
     2  1  1.50      -693.3689   6.0000                                                             
     3  0  0.50       -89.4732   2.0000                                                             
     3  1  1.50       -55.6373   6.0000                                                             
     3  2  2.50        -3.8151   7.0000                                                             
     4  0  0.50        -4.2551   1.0000                                                             
     4  3  2.50        -1.3606   0.0000                                                             
   Description                                                                                      
     l       E           TYP  RCUT    TYP  RCUT                                                     
     1    -55.6372668     23  2.000                                                                 
     1     -5.4423304     23  2.000                                                                 
     2     -3.8151096     23  2.200                                                                 
     2     -5.1756922     23  2.200                                                                 
     0     -4.2550951     23  2.200                                                                 
     0     27.2116520     23  2.200                                                                 
     3     -1.3605826     23  2.200                                                                 
  local pseudopotential read in
  partial core-charges read in
  partial kinetic energy density read in
  atomic valenz-charges read in
  non local Contribution for L=           1  read in
    real space projection operators read in
  non local Contribution for L=           1  read in
    real space projection operators read in
  non local Contribution for L=           2  read in
    real space projection operators read in
  non local Contribution for L=           2  read in
    real space projection operators read in
  non local Contribution for L=           0  read in
    real space projection operators read in
  non local Contribution for L=           0  read in
    real space projection operators read in
    PAW grid and wavefunctions read in
 
   number of l-projection  operators is LMAX  =           6
   number of lm-projection operators is LMMAX =          18
 
 POTCAR:    PAW_PBE Pt 04Feb2005                  
   SHA256 =  3ed90460adef76debcff1cfb73ee1349b515b1a3db03439735b44de3a8db7dc8 Pt/POTCAR             
   COPYR  = (c) Copyright 04Feb2005 Georg Kresse                                                    
   COPYR  = This file is part of the software VASP. Any use, copying, and all other rights are regul
   COPYR  = If you do not have a valid VASP license, you may not use, copy or distribute this file. 
   VRHFIN =Pt: s1d9                                                                                 
   LEXCH  = PE                                                                                      
   EATOM  =   729.1176 eV,   53.5886 Ry                                                             
                                                                                                    
   TITEL  = PAW_PBE Pt 04Feb2005                                                                    
   LULTRA =        F    use ultrasoft PP ?                                                          
   IUNSCR =        1    unscreen: 0-lin 1-nonlin 2-no                                               
   RPACOR =    2.330    partial core radius                                                         
   POMASS =  195.080; ZVAL   =   10.000    mass and valenz                                          
   RCORE  =    2.600    outmost cutoff radius                                                       
   RWIGS  =    2.750; RWIGS  =    1.455    wigner-seitz radius (au A)                               
   ENMAX  =  230.283; ENMIN  =  172.712 eV                                                          
   ICORE  =        3    local potential                                                             
   LCOR   =        T    correct aug charges                                                         
   LPAW   =        T    paw PP                                                                      
   EAUG   =  358.966                                                                                
   DEXC   =    0.000                                                                                
   RMAX   =    2.658    core radius for proj-oper                                                   
   RAUG   =    1.300    factor for augmentation sphere                                              
   RDEP   =    2.761    radius for radial grids                                                     
   RDEPT  =    2.203    core radius for aug-charge                                                  
                                                                                                    
   Atomic configuration                                                                             
   16 entries                                                                                       
     n  l   j            E        occ.                                                              
     1  0  0.50    -78401.1885   2.0000                                                             
     2  0  0.50    -13770.7750   2.0000                                                             
     2  1  1.50    -11931.0468   6.0000                                                             
     3  0  0.50     -3234.7234   2.0000                                                             
     3  1  1.50     -2699.2216   6.0000                                                             
     3  2  2.50     -2119.5714  10.0000                                                             
     4  0  0.50      -695.1528   2.0000                                                             
     4  1  1.50      -519.6034   6.0000                                                             
     4  2  2.50      -306.6786  10.0000                                                             
     4  3  3.50       -70.1041  14.0000                                                             
     5  0  0.50      -101.7747   2.0000                                                             
     5  1  1.50       -55.9873   6.0000                                                             
     5  2  2.50        -6.1423   9.0000                                                             
     6  0  0.50        -5.6573   1.0000                                                             
     6  1  1.50        -6.8029   0.0000                                                             
     5  3  2.50        -1.3606   0.0000                                                             
   Description                                                                                      
     l       E           TYP  RCUT    TYP  RCUT                                                     
     2     -6.1423404     23  2.500                                                                 
     2     -7.5029230     23  2.500                                                                 
     0     -5.6573207     23  2.500                                                                 
     0      0.7416693     23  2.500                                                                 
     1     -2.7211652     23  2.600                                                                 
     1     20.4087390     23  2.600                                                                 
     3     -1.3605826     23  2.500                                                                 
  local pseudopotential read in
  partial core-charges read in
  partial kinetic energy density read in
  atomic valenz-charges read in
  non local Contribution for L=           2  read in
    real space projection operators read in
  non local Contribution for L=           2  read in
    real space projection operators read in
  non local Contribution for L=           0  read in
    real space projection operators read in
  non local Contribution for L=           0  read in
    real space projection operators read in
  non local Contribution for L=           1  read in
    real space projection operators read in
  non local Contribution for L=           1  read in
    real space projection operators read in
    PAW grid and wavefunctions read in
 
   number of l-projection  operators is LMAX  =           6
   number of lm-projection operators is LMMAX =          18
 
  PAW_PBE Fe_pv 02Aug2007               :
 energy of atom  1       EATOM=-2457.4239
 kinetic energy error for atom=    0.0062 (will be added to EATOM!!)
  PAW_PBE Pt 04Feb2005                  :
 energy of atom  2       EATOM= -729.1176
 kinetic energy error for atom=    0.0032 (will be added to EATOM!!)
 
 
 POSCAR: Fe9 Pt3
  positions in direct lattice
  velocities in cartesian coordinates


 exchange-correlation table for PE
   RHO(1)=    0.500       N(1)  =     2000
   RHO(2)=  100.500       N(2)  =     4000
 


--------------------------------------------------------------------------------------------------------


 ion  position               nearest neighbor table
   1  0.000  0.500  0.166-   4 2.53   4 2.53  11 2.54  11 2.54   7 2.55   7 2.55   7 2.55   7 2.55
                            10 2.57  10 2.57   5 2.57   5 2.57
   2  0.000  0.500  0.499-   8 2.55   8 2.55   8 2.55   8 2.55   5 2.55   5 2.55   6 2.56   6 2.56
                            12 2.57  12 2.57  11 2.58  11 2.58
   3  0.000  0.500  0.835-  10 2.54  10 2.54   9 2.55   9 2.55   9 2.55   9 2.55  12 2.57  12 2.57
                             4 2.58   4 2.58   6 2.58   6 2.58
   4  0.500  0.500  0.003-   1 2.53   7 2.53   7 2.53   1 2.53  10 2.55  10 2.55  10 2.55  10 2.55
                             9 2.58   3 2.58   9 2.58   3 2.58
   5  0.500  0.500  0.334-  11 2.55  11 2.55  11 2.55  11 2.55   8 2.55   2 2.55   2 2.55   8 2.55
                             1 2.57   7 2.57   1 2.57   7 2.57
   6  0.500  0.500  0.665-  12 2.55  12 2.55  12 2.55  12 2.55   8 2.56   2 2.56   2 2.56   8 2.56
                             9 2.58   3 2.58   9 2.58   3 2.58
   7  0.500  0.000  0.166-   4 2.53   4 2.53  11 2.54  11 2.54   1 2.55   1 2.55   1 2.55   1 2.55
                            10 2.57  10 2.57   5 2.57   5 2.57
   8  0.500  0.000  0.499-   2 2.55   2 2.55   2 2.55   2 2.55   5 2.55   5 2.55   6 2.56   6 2.56
                            12 2.57  12 2.57  11 2.58  11 2.58
   9  0.500  0.000  0.835-  10 2.54  10 2.54   3 2.55   3 2.55   3 2.55   3 2.55  12 2.57  12 2.57
                             4 2.58   4 2.58   6 2.58   6 2.58
  10  0.000  0.000  0.999-   3 2.54   9 2.54   3 2.54   9 2.54   4 2.55   4 2.55   4 2.55   4 2.55
                             1 2.57   7 2.57   7 2.57   1 2.57
  11  0.000  0.000  0.330-   1 2.54   7 2.54   1 2.54   7 2.54   5 2.55   5 2.55   5 2.55   5 2.55
                             2 2.58   2 2.58   8 2.58   8 2.58
  12  0.000  0.000  0.667-   6 2.55   6 2.55   6 2.55   6 2.55   3 2.57   9 2.57   9 2.57   3 2.57
                             2 2.57   8 2.57   8 2.57   2 2.57
 
  LATTYP: Found a simple tetragonal cell.
 ALAT       =     3.6068932874
 C/A-ratio  =     3.0261361500
  
  Lattice vectors:
  
 A1 = (   3.6068932874,   0.0000000000,   0.0000000000)
 A2 = (   0.0000000000,   3.6068932874,   0.0000000000)
 A3 = (   0.0000000000,   0.0000000000,  10.9149501662)


Analysis of symmetry for initial positions (statically):
=====================================================================
 Subroutine PRICEL returns:
 Original cell was already a primitive cell.
 

 Routine SETGRP: Setting up the symmetry group for a 
 simple tetragonal supercell.


 Subroutine GETGRP returns: Found  8 space group operations
 (whereof  8 operations were pure point group operations)
 out of a pool of 16 trial point group operations.


The static configuration has the point symmetry C_4v.


Analysis of symmetry for dynamics (positions and initial velocities):
=====================================================================
 Subroutine PRICEL returns:
 Original cell was already a primitive cell.
 

 Routine SETGRP: Setting up the symmetry group for a 
 simple tetragonal supercell.


 Subroutine GETGRP returns: Found  8 space group operations
 (whereof  8 operations were pure point group operations)
 out of a pool of 16 trial point group operations.


The dynamic configuration has the point symmetry C_4v.


Analysis of structural, dynamic, and magnetic symmetry:
=====================================================================
 Subroutine PRICEL returns:
 Original cell was already a primitive cell.
 

 Routine SETGRP: Setting up the symmetry group for a 
 simple tetragonal supercell.


 Subroutine GETGRP returns: Found  8 space group operations
 (whereof  8 operations were pure point group operations)
 out of a pool of 16 trial point group operations.


The overall configuration has the point symmetry C_4v.


 Subroutine INISYM returns: Found  8 space group operations
 (whereof  8 operations are pure point group operations),
 and found     1 'primitive' translations


----------------------------------------------------------------------------------------

                                     Primitive cell                                     

  volume of cell :     142.0000

  direct lattice vectors                    reciprocal lattice vectors
     3.606893287  0.000000000  0.000000000     0.277246905  0.000000000  0.000000000
     0.000000000  3.606893287  0.000000000     0.000000000  0.277246905  0.000000000
     0.000000000  0.000000000 10.914950166     0.000000000  0.000000000  0.091617459

  length of vectors
     3.606893287  3.606893287 10.914950166     0.277246905  0.277246905  0.091617459

  position of ions in fractional coordinates (direct lattice)
     0.000000000  0.500000000  0.166469741
     0.000000000  0.500000000  0.499263223
     0.000000000  0.500000000  0.834695678
     0.500000000  0.500000000  0.003471204
     0.500000000  0.500000000  0.333927702
     0.500000000  0.500000000  0.665144097
     0.500000000  0.000000000  0.166469741
     0.500000000  0.000000000  0.499263223
     0.500000000  0.000000000  0.834695678
     0.000000000  0.000000000  0.999125369
     0.000000000  0.000000000  0.330371294
     0.000000000  0.000000000  0.667103049

  ion indices of the primitive-cell ions
   primitive index   ion index
                 1           1
                 2           2
                 3           3
                 4           4
                 5           5
                 6           6
                 7           7
                 8           8
                 9           9
                10          10
                11          11
                12          12

----------------------------------------------------------------------------------------

 
 
 KPOINTS: pymatgen with grid density = 8800 / numb

Automatic generation of k-mesh.
 Grid dimensions read from file:
 generate k-points for:   13   13    4

 Generating k-lattice:

  Cartesian coordinates                     Fractional coordinates (reciprocal lattice)
     0.021326685  0.000000000  0.000000000     0.076923077  0.000000000  0.000000000
     0.000000000  0.021326685  0.000000000     0.000000000  0.076923077  0.000000000
     0.000000000  0.000000000  0.022904365     0.000000000  0.000000000  0.250000000

  Length of vectors
     0.021326685  0.021326685  0.022904365

  Shift w.r.t. Gamma in fractional coordinates (k-lattice)
     0.000000000  0.000000000  0.000000000

 TETIRR: Found   1010 inequivalent tetrahedra from     4056
 
 Subroutine IBZKPT returns following result:
 ===========================================
 
 Found     84 irreducible k-points:
 
 Following reciprocal coordinates:
            Coordinates               Weight
  0.000000  0.000000  0.000000      1.000000
  0.076923  0.000000  0.000000      4.000000
  0.153846  0.000000  0.000000      4.000000
  0.230769  0.000000  0.000000      4.000000
  0.307692  0.000000  0.000000      4.000000
  0.384615  0.000000  0.000000      4.000000
  0.461538  0.000000  0.000000      4.000000
  0.076923  0.076923  0.000000      4.000000
  0.153846  0.076923  0.000000      8.000000
  0.230769  0.076923  0.000000      8.000000
  0.307692  0.076923  0.000000      8.000000
  0.384615  0.076923  0.000000      8.000000
  0.461538  0.076923  0.000000      8.000000
  0.153846  0.153846  0.000000      4.000000
  0.230769  0.153846  0.000000      8.000000
  0.307692  0.153846  0.000000      8.000000
  0.384615  0.153846  0.000000      8.000000
  0.461538  0.153846  0.000000      8.000000
  0.230769  0.230769  0.000000      4.000000
  0.307692  0.230769  0.000000      8.000000
  0.384615  0.230769  0.000000      8.000000
  0.461538  0.230769  0.000000      8.000000
  0.307692  0.307692  0.000000      4.000000
  0.384615  0.307692  0.000000      8.000000
  0.461538  0.307692  0.000000      8.000000
  0.384615  0.384615  0.000000      4.000000
  0.461538  0.384615  0.000000      8.000000
  0.461538  0.461538  0.000000      4.000000
  0.000000  0.000000  0.250000      2.000000
  0.076923  0.000000  0.250000      8.000000
  0.153846  0.000000  0.250000      8.000000
  0.230769  0.000000  0.250000      8.000000
  0.307692  0.000000  0.250000      8.000000
  0.384615  0.000000  0.250000      8.000000
  0.461538  0.000000  0.250000      8.000000
  0.076923  0.076923  0.250000      8.000000
  0.153846  0.076923  0.250000     16.000000
  0.230769  0.076923  0.250000     16.000000
  0.307692  0.076923  0.250000     16.000000
  0.384615  0.076923  0.250000     16.000000
  0.461538  0.076923  0.250000     16.000000
  0.153846  0.153846  0.250000      8.000000
  0.230769  0.153846  0.250000     16.000000
  0.307692  0.153846  0.250000     16.000000
  0.384615  0.153846  0.250000     16.000000
  0.461538  0.153846  0.250000     16.000000
  0.230769  0.230769  0.250000      8.000000
  0.307692  0.230769  0.250000     16.000000
  0.384615  0.230769  0.250000     16.000000
  0.461538  0.230769  0.250000     16.000000
  0.307692  0.307692  0.250000      8.000000
  0.384615  0.307692  0.250000     16.000000
  0.461538  0.307692  0.250000     16.000000
  0.384615  0.384615  0.250000      8.000000
  0.461538  0.384615  0.250000     16.000000
  0.461538  0.461538  0.250000      8.000000
  0.000000  0.000000  0.500000      1.000000
  0.076923  0.000000  0.500000      4.000000
  0.153846  0.000000  0.500000      4.000000
  0.230769  0.000000  0.500000      4.000000
  0.307692  0.000000  0.500000      4.000000
  0.384615  0.000000  0.500000      4.000000
  0.461538  0.000000  0.500000      4.000000
  0.076923  0.076923  0.500000      4.000000
  0.153846  0.076923  0.500000      8.000000
  0.230769  0.076923  0.500000      8.000000
  0.307692  0.076923  0.500000      8.000000
  0.384615  0.076923  0.500000      8.000000
  0.461538  0.076923  0.500000      8.000000
  0.153846  0.153846  0.500000      4.000000
  0.230769  0.153846  0.500000      8.000000
  0.307692  0.153846  0.500000      8.000000
  0.384615  0.153846  0.500000      8.000000
  0.461538  0.153846  0.500000      8.000000
  0.230769  0.230769  0.500000      4.000000
  0.307692  0.230769  0.500000      8.000000
  0.384615  0.230769  0.500000      8.000000
  0.461538  0.230769  0.500000      8.000000
  0.307692  0.307692  0.500000      4.000000
  0.384615  0.307692  0.500000      8.000000
  0.461538  0.307692  0.500000      8.000000
  0.384615  0.384615  0.500000      4.000000
  0.461538  0.384615  0.500000      8.000000
  0.461538  0.461538  0.500000      4.000000
 
 Following cartesian coordinates:
            Coordinates               Weight
  0.000000  0.000000  0.000000      1.000000
  0.021327  0.000000  0.000000      4.000000
  0.042653  0.000000  0.000000      4.000000
  0.063980  0.000000  0.000000      4.000000
  0.085307  0.000000  0.000000      4.000000
  0.106633  0.000000  0.000000      4.000000
  0.127960  0.000000  0.000000      4.000000
  0.021327  0.021327  0.000000      4.000000
  0.042653  0.021327  0.000000      8.000000
  0.063980  0.021327  0.000000      8.000000
  0.085307  0.021327  0.000000      8.000000
  0.106633  0.021327  0.000000      8.000000
  0.127960  0.021327  0.000000      8.000000
  0.042653  0.042653  0.000000      4.000000
  0.063980  0.042653  0.000000      8.000000
  0.085307  0.042653  0.000000      8.000000
  0.106633  0.042653  0.000000      8.000000
  0.127960  0.042653  0.000000      8.000000
  0.063980  0.063980  0.000000      4.000000
  0.085307  0.063980  0.000000      8.000000
  0.106633  0.063980  0.000000      8.000000
  0.127960  0.063980  0.000000      8.000000
  0.085307  0.085307  0.000000      4.000000
  0.106633  0.085307  0.000000      8.000000
  0.127960  0.085307  0.000000      8.000000
  0.106633  0.106633  0.000000      4.000000
  0.127960  0.106633  0.000000      8.000000
  0.127960  0.127960  0.000000      4.000000
  0.000000  0.000000  0.022904      2.000000
  0.021327  0.000000  0.022904      8.000000
  0.042653  0.000000  0.022904      8.000000
  0.063980  0.000000  0.022904      8.000000
  0.085307  0.000000  0.022904      8.000000
  0.106633  0.000000  0.022904      8.000000
  0.127960  0.000000  0.022904      8.000000
  0.021327  0.021327  0.022904      8.000000
  0.042653  0.021327  0.022904     16.000000
  0.063980  0.021327  0.022904     16.000000
  0.085307  0.021327  0.022904     16.000000
  0.106633  0.021327  0.022904     16.000000
  0.127960  0.021327  0.022904     16.000000
  0.042653  0.042653  0.022904      8.000000
  0.063980  0.042653  0.022904     16.000000
  0.085307  0.042653  0.022904     16.000000
  0.106633  0.042653  0.022904     16.000000
  0.127960  0.042653  0.022904     16.000000
  0.063980  0.063980  0.022904      8.000000
  0.085307  0.063980  0.022904     16.000000
  0.106633  0.063980  0.022904     16.000000
  0.127960  0.063980  0.022904     16.000000
  0.085307  0.085307  0.022904      8.000000
  0.106633  0.085307  0.022904     16.000000
  0.127960  0.085307  0.022904     16.000000
  0.106633  0.106633  0.022904      8.000000
  0.127960  0.106633  0.022904     16.000000
  0.127960  0.127960  0.022904      8.000000
  0.000000  0.000000  0.045809      1.000000
  0.021327  0.000000  0.045809      4.000000
  0.042653  0.000000  0.045809      4.000000
  0.063980  0.000000  0.045809      4.000000
  0.085307  0.000000  0.045809      4.000000
  0.106633  0.000000  0.045809      4.000000
  0.127960  0.000000  0.045809      4.000000
  0.021327  0.021327  0.045809      4.000000
  0.042653  0.021327  0.045809      8.000000
  0.063980  0.021327  0.045809      8.000000
  0.085307  0.021327  0.045809      8.000000
  0.106633  0.021327  0.045809      8.000000
  0.127960  0.021327  0.045809      8.000000
  0.042653  0.042653  0.045809      4.000000
  0.063980  0.042653  0.045809      8.000000
  0.085307  0.042653  0.045809      8.000000
  0.106633  0.042653  0.045809      8.000000
  0.127960  0.042653  0.045809      8.000000
  0.063980  0.063980  0.045809      4.000000
  0.085307  0.063980  0.045809      8.000000
  0.106633  0.063980  0.045809      8.000000
  0.127960  0.063980  0.045809      8.000000
  0.085307  0.085307  0.045809      4.000000
  0.106633  0.085307  0.045809      8.000000
  0.127960  0.085307  0.045809      8.000000
  0.106633  0.106633  0.045809      4.000000
  0.127960  0.106633  0.045809      8.000000
  0.127960  0.127960  0.045809      4.000000
 


--------------------------------------------------------------------------------------------------------




 Dimension of arrays:
   k-points           NKPTS =     84   k-points in BZ     NKDIM =     84   number of bands    NBANDS=    128
   number of dos      NEDOS =    301   number of ions     NIONS =     12
   non local maximal  LDIM  =      6   non local SUM 2l+1 LMDIM =     18
   total plane-waves  NPLWV =  65856
   max r-space proj   IRMAX =      1   max aug-charges    IRDMAX=  28286
   dimension x,y,z NGX =    28 NGY =   28 NGZ =   84
   dimension x,y,z NGXF=    56 NGYF=   56 NGZF=  168
   support grid    NGXF=    56 NGYF=   56 NGZF=  168
   ions per type =               9   3
   NGX,Y,Z   is equivalent  to a cutoff of  12.91, 12.91, 12.79 a.u.
   NGXF,Y,Z  is equivalent  to a cutoff of  25.81, 25.81, 25.59 a.u.

 SYSTEM =  unknown system                          
 POSCAR =  Fe9 Pt3                                 

 Startparameter for this run:
   NWRITE =      2    write-flag & timer
   PREC   = accura    normal or accurate (medium, high low for compatibility)
   ISTART =      0    job   : 0-new  1-cont  2-samecut
   ICHARG =      2    charge: 1-file 2-atom 10-const
   ISPIN  =      2    spin polarized calculation?
   LNONCOLLINEAR =      F non collinear calculations
   LSORBIT =      F    spin-orbit coupling
   INIWAV =      1    electr: 0-lowe 1-rand  2-diag
   LASPH  =      F    aspherical Exc in radial PAW
 Electronic Relaxation 1
   ENCUT  =  520.0 eV  38.22 Ry    6.18 a.u.   6.71  6.71 20.29*2*pi/ulx,y,z
   ENINI  =  520.0     initial cutoff
   ENAUG  =  578.3 eV  augmentation charge cutoff
   NELM   =    200;   NELMIN=  2; NELMDL=  0     # of ELM steps 
   EDIFF  = 0.1E-05   stopping-criterion for ELM
   LREAL  =      F    real-space projection
   NLSPLINE    = F    spline interpolate recip. space projectors
   LCOMPAT=      F    compatible to vasp.4.4
   GGA_COMPAT  = T    GGA compatible to vasp.4.4-vasp.4.6
   LMAXPAW     = -100 max onsite density
   LMAXMIX     =    2 max onsite mixed and CHGCAR
   VOSKOWN=      0    Vosko Wilk Nusair interpolation
   ROPT   =    0.00000   0.00000
 Ionic relaxation
   EDIFFG = -.1E-01   stopping-criterion for IOM
   NSW    =      0    number of steps for IOM
   NBLOCK =      1;   KBLOCK =      1    inner block; outer block 
   IBRION =     -1    ionic relax: 0-MD 1-quasi-New 2-CG
   NFREE  =      0    steps in history (QN), initial steepest desc. (CG)
   ISIF   =      4    stress and relaxation
   IWAVPR =     10    prediction:  0-non 1-charg 2-wave 3-comb
   ISYM   =      2    0-nonsym 1-usesym 2-fastsym
   LCORR  =      T    Harris-Foulkes like correction to forces

   POTIM  = 0.5000    time-step for ionic-motion
   TEIN   =    0.0    initial temperature
   TEBEG  =    0.0;   TEEND  =   0.0 temperature during run
   SMASS  =  -3.00    Nose mass-parameter (am)
   estimated Nose-frequenzy (Omega)   =  0.10E-29 period in steps = 0.13E+47 mass=  -0.297E-27a.u.
   SCALEE = 1.0000    scale energy and forces
   NPACO  =    256;   APACO  = 10.0  distance and # of slots for P.C.
   PSTRESS=    0.0 pullay stress

  Mass of Ions in am
   POMASS =  55.85195.08
  Ionic Valenz
   ZVAL   =  14.00 10.00
  Atomic Wigner-Seitz radii
   RWIGS  =  -1.00 -1.00
  virtual crystal weights 
   VCA    =   1.00  1.00
   NELECT =     156.0000    total number of electrons
   NUPDOWN=      -1.0000    fix difference up-down

 DOS related values:
   EMIN   =  10.00;   EMAX   =-10.00  energy-range for DOS
   EFERMI =   0.00;   METHOD = LEGACY      
   ISMEAR =    -5;   SIGMA  =   0.20  broadening in eV -4-tet -1-fermi 0-gaus

 Electronic relaxation 2 (details)
   IALGO  =     38    algorithm
   LDIAG  =      T    sub-space diagonalisation (order eigenvalues)
   LSUBROT=      F    optimize rotation matrix (better conditioning)
   TURBO    =      0    0=normal 1=particle mesh
   IRESTART =      0    0=no restart 2=restart with 2 vectors
   NREBOOT  =      0    no. of reboots
   NMIN     =      0    reboot dimension
   EREF     =   0.00    reference energy to select bands
   IMIX   =      4    mixing-type and parameters
     AMIX     =   0.40;   BMIX     =  1.00
     AMIX_MAG =   1.60;   BMIX_MAG =  1.00
     AMIN     =   0.10
     WC   =   100.;   INIMIX=   1;  MIXPRE=   1;  MAXMIX= -45

 Intra band minimization:
   WEIMIN = 0.0000     energy-eigenvalue tresh-hold
   EBREAK =  0.20E-08  absolut break condition
   DEPER  =   0.30     relativ break condition  

   TIME   =   0.40     timestep for ELM

  volume/ion in A,a.u.               =      11.83        79.86
  Fermi-wavevector in a.u.,A,eV,Ry     =   1.689223  3.192168 38.823863  2.853473
  Thomas-Fermi vector in A             =   2.771388
 
 Write flags
   LWAVE        =      F    write WAVECAR
   LDOWNSAMPLE  =      F    k-point downsampling of WAVECAR
   LCHARG       =      T    write CHGCAR
   LVTOT        =      F    write LOCPOT, total local potential
   LVHAR        =      F    write LOCPOT, Hartree potential only
   WRT_POTENTIAL= false  ! write potential to hdf5 file
   LELF         =      F    write electronic localiz. function (ELF)
   LORBIT       =     11    0 simple, 1 ext, 2 COOP (PROOUT), +10 PAW based schemes


 Dipole corrections
   LMONO      =      F    monopole corrections only (constant potential shift)
   LDIPOL     =      F    correct potential (dipole corrections)
   IDIPOL     =      0    1-x, 2-y, 3-z, 4-all directions 
   EPSILON    =  1.0000000 bulk dielectric constant
   LVACPOTAV  =      F  vacuum potentials using an averaging scheme for the charge density
   VACPOTFLAT =  0.1000000 required flatness to determine vacuum potential
 Exchange correlation treatment:
   GGA     = PE    functional components
   XC_C    = 1    coefficients multiplying the functional components
   LIBXC   =     F    Libxc                    
   VOSKOWN =     0    Vosko Wilk Nusair interpolation
   LHFCALC =     F    Hartree Fock is set to
   LHFONE  =     F    Hartree Fock one center treatment
   AEXX    =    0.0000 exact exchange contribution

 Parameters of functionals:
   PE:
     No parameter
 
 Van der Waals corrections
   IVDW    =     0    specifies the selected vdW correction

 Linear response parameters
   LEPSILON=     F    determine dielectric tensor
   LRPA    =     F    only Hartree local field effects (RPA)
   LNABLA  =     F    use nabla operator in PAW spheres
   LVEL    =     F    velocity operator in full k-point grid
   CSHIFT  =0.1000    complex shift for real part using Kramers Kronig
   OMEGAMAX=  -1.0    maximum frequency
   DEG_THRESHOLD= 0.2000000E-02 threshold for treating states as degnerate
   RTIME   =   -0.100 relaxation time in fs
  (WPLASMAI=    0.000 imaginary part of plasma frequency in eV, 0.658/RTIME)
   DFIELD  = 0.0000000 0.0000000 0.0000000 field for delta impulse in time
 
  Optional k-point grid parameters
   LKPOINTS_OPT  =     F    use optional k-point grid
   KPOINTS_OPT_MODE=     1    mode for optional k-point grid
 
 Orbital magnetization related:
   ORBITALMAG=     F  switch on orbital magnetization
   LCHIMAG   =     F  perturbation theory with respect to B field
   DQ        =  0.001000  dq finite difference perturbation B field
   LLRAUG    =     F  two centre corrections for induced B field
   LBONE     =     F  B-component reconstruction in AE one-centre
   LVGVCALC  =     T  calculate vGv susceptibility
   LVGVAPPL  =     F  apply vGv susceptibility instead of pGv for G=0

 Random number generation:
   RANDOM_GENERATOR = DEFAULT
   PCG_SEED         = not used


--------------------------------------------------------------------------------------------------------


 Static calculation
 charge density and potential will be updated during run
 spin polarized calculation
 Variant of blocked Davidson
 Davidson routine will perform the subspace rotation
 perform sub-space diagonalisation
    after iterative eigenvector-optimisation
 modified Broyden-mixing scheme, WC =      100.0
 initial mixing is a Kerker type mixing with AMIX =  0.4000 and BMIX =      1.0000
 Hartree-type preconditioning will be used
 using additional bands           50
 reciprocal scheme for non local part
 use partial core corrections
 calculate Harris-corrections to forces 
   (improved forces if not selfconsistent)
 use gradient corrections 
 use of overlap-Matrix (Vanderbilt PP)
 Fermi weights with tetrahedron method with Bloechl corrections


--------------------------------------------------------------------------------------------------------


  energy-cutoff  :      520.00
  volume of cell :      142.00
      direct lattice vectors                 reciprocal lattice vectors
     3.606893287  0.000000000  0.000000000     0.277246905  0.000000000  0.000000000
     0.000000000  3.606893287  0.000000000     0.000000000  0.277246905  0.000000000
     0.000000000  0.000000000 10.914950166     0.000000000  0.000000000  0.091617459

  length of vectors
     3.606893287  3.606893287 10.914950166     0.277246905  0.277246905  0.091617459


 
 k-points in units of 2pi/SCALE and weight: pymatgen with grid density = 8800 / numb
   0.00000000  0.00000000  0.00000000       0.001
   0.02132668  0.00000000  0.00000000       0.006
   0.04265337  0.00000000  0.00000000       0.006
   0.06398005  0.00000000  0.00000000       0.006
   0.08530674  0.00000000  0.00000000       0.006
   0.10663342  0.00000000  0.00000000       0.006
   0.12796011  0.00000000  0.00000000       0.006
   0.02132668  0.02132668  0.00000000       0.006
   0.04265337  0.02132668  0.00000000       0.012
   0.06398005  0.02132668  0.00000000       0.012
   0.08530674  0.02132668  0.00000000       0.012
   0.10663342  0.02132668  0.00000000       0.012
   0.12796011  0.02132668  0.00000000       0.012
   0.04265337  0.04265337  0.00000000       0.006
   0.06398005  0.04265337  0.00000000       0.012
   0.08530674  0.04265337  0.00000000       0.012
   0.10663342  0.04265337  0.00000000       0.012
   0.12796011  0.04265337  0.00000000       0.012
   0.06398005  0.06398005  0.00000000       0.006
   0.08530674  0.06398005  0.00000000       0.012
   0.10663342  0.06398005  0.00000000       0.012
   0.12796011  0.06398005  0.00000000       0.012
   0.08530674  0.08530674  0.00000000       0.006
   0.10663342  0.08530674  0.00000000       0.012
   0.12796011  0.08530674  0.00000000       0.012
   0.10663342  0.10663342  0.00000000       0.006
   0.12796011  0.10663342  0.00000000       0.012
   0.12796011  0.12796011  0.00000000       0.006
   0.00000000  0.00000000  0.02290436       0.003
   0.02132668  0.00000000  0.02290436       0.012
   0.04265337  0.00000000  0.02290436       0.012
   0.06398005  0.00000000  0.02290436       0.012
   0.08530674  0.00000000  0.02290436       0.012
   0.10663342  0.00000000  0.02290436       0.012
   0.12796011  0.00000000  0.02290436       0.012
   0.02132668  0.02132668  0.02290436       0.012
   0.04265337  0.02132668  0.02290436       0.024
   0.06398005  0.02132668  0.02290436       0.024
   0.08530674  0.02132668  0.02290436       0.024
   0.10663342  0.02132668  0.02290436       0.024
   0.12796011  0.02132668  0.02290436       0.024
   0.04265337  0.04265337  0.02290436       0.012
   0.06398005  0.04265337  0.02290436       0.024
   0.08530674  0.04265337  0.02290436       0.024
   0.10663342  0.04265337  0.02290436       0.024
   0.12796011  0.04265337  0.02290436       0.024
   0.06398005  0.06398005  0.02290436       0.012
   0.08530674  0.06398005  0.02290436       0.024
   0.10663342  0.06398005  0.02290436       0.024
   0.12796011  0.06398005  0.02290436       0.024
   0.08530674  0.08530674  0.02290436       0.012
   0.10663342  0.08530674  0.02290436       0.024
   0.12796011  0.08530674  0.02290436       0.024
   0.10663342  0.10663342  0.02290436       0.012
   0.12796011  0.10663342  0.02290436       0.024
   0.12796011  0.12796011  0.02290436       0.012
   0.00000000  0.00000000  0.04580873       0.001
   0.02132668  0.00000000  0.04580873       0.006
   0.04265337  0.00000000  0.04580873       0.006
   0.06398005  0.00000000  0.04580873       0.006
   0.08530674  0.00000000  0.04580873       0.006
   0.10663342  0.00000000  0.04580873       0.006
   0.12796011  0.00000000  0.04580873       0.006
   0.02132668  0.02132668  0.04580873       0.006
   0.04265337  0.02132668  0.04580873       0.012
   0.06398005  0.02132668  0.04580873       0.012
   0.08530674  0.02132668  0.04580873       0.012
   0.10663342  0.02132668  0.04580873       0.012
   0.12796011  0.02132668  0.04580873       0.012
   0.04265337  0.04265337  0.04580873       0.006
   0.06398005  0.04265337  0.04580873       0.012
   0.08530674  0.04265337  0.04580873       0.012
   0.10663342  0.04265337  0.04580873       0.012
   0.12796011  0.04265337  0.04580873       0.012
   0.06398005  0.06398005  0.04580873       0.006
   0.08530674  0.06398005  0.04580873       0.012
   0.10663342  0.06398005  0.04580873       0.012
   0.12796011  0.06398005  0.04580873       0.012
   0.08530674  0.08530674  0.04580873       0.006
   0.10663342  0.08530674  0.04580873       0.012
   0.12796011  0.08530674  0.04580873       0.012
   0.10663342  0.10663342  0.04580873       0.006
   0.12796011  0.10663342  0.04580873       0.012
   0.12796011  0.12796011  0.04580873       0.006
 
 k-points in reciprocal lattice and weights: pymatgen with grid density = 8800 / numb
   0.00000000  0.00000000  0.00000000       0.001
   0.07692308  0.00000000  0.00000000       0.006
   0.15384615  0.00000000  0.00000000       0.006
   0.23076923  0.00000000  0.00000000       0.006
   0.30769231  0.00000000  0.00000000       0.006
   0.38461538  0.00000000  0.00000000       0.006
   0.46153846  0.00000000  0.00000000       0.006
   0.07692308  0.07692308  0.00000000       0.006
   0.15384615  0.07692308  0.00000000       0.012
   0.23076923  0.07692308  0.00000000       0.012
   0.30769231  0.07692308  0.00000000       0.012
   0.38461538  0.07692308  0.00000000       0.012
   0.46153846  0.07692308  0.00000000       0.012
   0.15384615  0.15384615  0.00000000       0.006
   0.23076923  0.15384615  0.00000000       0.012
   0.30769231  0.15384615  0.00000000       0.012
   0.38461538  0.15384615  0.00000000       0.012
   0.46153846  0.15384615  0.00000000       0.012
   0.23076923  0.23076923  0.00000000       0.006
   0.30769231  0.23076923  0.00000000       0.012
   0.38461538  0.23076923  0.00000000       0.012
   0.46153846  0.23076923  0.00000000       0.012
   0.30769231  0.30769231  0.00000000       0.006
   0.38461538  0.30769231  0.00000000       0.012
   0.46153846  0.30769231  0.00000000       0.012
   0.38461538  0.38461538  0.00000000       0.006
   0.46153846  0.38461538  0.00000000       0.012
   0.46153846  0.46153846  0.00000000       0.006
   0.00000000  0.00000000  0.25000000       0.003
   0.07692308  0.00000000  0.25000000       0.012
   0.15384615  0.00000000  0.25000000       0.012
   0.23076923  0.00000000  0.25000000       0.012
   0.30769231  0.00000000  0.25000000       0.012
   0.38461538  0.00000000  0.25000000       0.012
   0.46153846  0.00000000  0.25000000       0.012
   0.07692308  0.07692308  0.25000000       0.012
   0.15384615  0.07692308  0.25000000       0.024
   0.23076923  0.07692308  0.25000000       0.024
   0.30769231  0.07692308  0.25000000       0.024
   0.38461538  0.07692308  0.25000000       0.024
   0.46153846  0.07692308  0.25000000       0.024
   0.15384615  0.15384615  0.25000000       0.012
   0.23076923  0.15384615  0.25000000       0.024
   0.30769231  0.15384615  0.25000000       0.024
   0.38461538  0.15384615  0.25000000       0.024
   0.46153846  0.15384615  0.25000000       0.024
   0.23076923  0.23076923  0.25000000       0.012
   0.30769231  0.23076923  0.25000000       0.024
   0.38461538  0.23076923  0.25000000       0.024
   0.46153846  0.23076923  0.25000000       0.024
   0.30769231  0.30769231  0.25000000       0.012
   0.38461538  0.30769231  0.25000000       0.024
   0.46153846  0.30769231  0.25000000       0.024
   0.38461538  0.38461538  0.25000000       0.012
   0.46153846  0.38461538  0.25000000       0.024
   0.46153846  0.46153846  0.25000000       0.012
   0.00000000  0.00000000  0.50000000       0.001
   0.07692308  0.00000000  0.50000000       0.006
   0.15384615  0.00000000  0.50000000       0.006
   0.23076923  0.00000000  0.50000000       0.006
   0.30769231  0.00000000  0.50000000       0.006
   0.38461538  0.00000000  0.50000000       0.006
   0.46153846  0.00000000  0.50000000       0.006
   0.07692308  0.07692308  0.50000000       0.006
   0.15384615  0.07692308  0.50000000       0.012
   0.23076923  0.07692308  0.50000000       0.012
   0.30769231  0.07692308  0.50000000       0.012
   0.38461538  0.07692308  0.50000000       0.012
   0.46153846  0.07692308  0.50000000       0.012
   0.15384615  0.15384615  0.50000000       0.006
   0.23076923  0.15384615  0.50000000       0.012
   0.30769231  0.15384615  0.50000000       0.012
   0.38461538  0.15384615  0.50000000       0.012
   0.46153846  0.15384615  0.50000000       0.012
   0.23076923  0.23076923  0.50000000       0.006
   0.30769231  0.23076923  0.50000000       0.012
   0.38461538  0.23076923  0.50000000       0.012
   0.46153846  0.23076923  0.50000000       0.012
   0.30769231  0.30769231  0.50000000       0.006
   0.38461538  0.30769231  0.50000000       0.012
   0.46153846  0.30769231  0.50000000       0.012
   0.38461538  0.38461538  0.50000000       0.006
   0.46153846  0.38461538  0.50000000       0.012
   0.46153846  0.46153846  0.50000000       0.006
 
 position of ions in fractional coordinates (direct lattice) 
   0.00000000  0.50000000  0.16646974
   0.00000000  0.50000000  0.49926322
   0.00000000  0.50000000  0.83469568
   0.50000000  0.50000000  0.00347120
   0.50000000  0.50000000  0.33392770
   0.50000000  0.50000000  0.66514410
   0.50000000  0.00000000  0.16646974
   0.50000000  0.00000000  0.49926322
   0.50000000  0.00000000  0.83469568
   0.00000000  0.00000000  0.99912537
   0.00000000  0.00000000  0.33037129
   0.00000000  0.00000000  0.66710305
 
 position of ions in cartesian coordinates  (Angst):
   0.00000000  1.80344664  1.81700893
   0.00000000  1.80344664  5.44943320
   0.00000000  1.80344664  9.11066173
   1.80344664  1.80344664  0.03788802
   1.80344664  1.80344664  3.64480423
   1.80344664  1.80344664  7.26001467
   1.80344664  0.00000000  1.81700893
   1.80344664  0.00000000  5.44943320
   1.80344664  0.00000000  9.11066173
   0.00000000  0.00000000 10.90540361
   0.00000000  0.00000000  3.60598622
   0.00000000  0.00000000  7.28139654
 


--------------------------------------------------------------------------------------------------------


 k-point     1 :   0.0000 0.0000 0.0000  plane waves:    3865
 k-point     2 :   0.0769 0.0000 0.0000  plane waves:    3851
 k-point     3 :   0.1538 0.0000 0.0000  plane waves:    3837
 k-point     4 :   0.2308 0.0000 0.0000  plane waves:    3845
 k-point     5 :   0.3077 0.0000 0.0000  plane waves:    3830
 k-point     6 :   0.3846 0.0000 0.0000  plane waves:    3812
 k-point     7 :   0.4615 0.0000 0.0000  plane waves:    3808
 k-point     8 :   0.0769 0.0769 0.0000  plane waves:    3839
 k-point     9 :   0.1538 0.0769 0.0000  plane waves:    3842
 k-point    10 :   0.2308 0.0769 0.0000  plane waves:    3833
 k-point    11 :   0.3077 0.0769 0.0000  plane waves:    3832
 k-point    12 :   0.3846 0.0769 0.0000  plane waves:    3825
 k-point    13 :   0.4615 0.0769 0.0000  plane waves:    3808
 k-point    14 :   0.1538 0.1538 0.0000  plane waves:    3827
 k-point    15 :   0.2308 0.1538 0.0000  plane waves:    3831
 k-point    16 :   0.3077 0.1538 0.0000  plane waves:    3811
 k-point    17 :   0.3846 0.1538 0.0000  plane waves:    3809
 k-point    18 :   0.4615 0.1538 0.0000  plane waves:    3805
 k-point    19 :   0.2308 0.2308 0.0000  plane waves:    3821
 k-point    20 :   0.3077 0.2308 0.0000  plane waves:    3819
 k-point    21 :   0.3846 0.2308 0.0000  plane waves:    3821
 k-point    22 :   0.4615 0.2308 0.0000  plane waves:    3814
 k-point    23 :   0.3077 0.3077 0.0000  plane waves:    3796
 k-point    24 :   0.3846 0.3077 0.0000  plane waves:    3803
 k-point    25 :   0.4615 0.3077 0.0000  plane waves:    3829
 k-point    26 :   0.3846 0.3846 0.0000  plane waves:    3830
 k-point    27 :   0.4615 0.3846 0.0000  plane waves:    3851
 k-point    28 :   0.4615 0.4615 0.0000  plane waves:    3836
 k-point    29 :   0.0000 0.0000 0.2500  plane waves:    3813
 k-point    30 :   0.0769 0.0000 0.2500  plane waves:    3836
 k-point    31 :   0.1538 0.0000 0.2500  plane waves:    3844
 k-point    32 :   0.2308 0.0000 0.2500  plane waves:    3844
 k-point    33 :   0.3077 0.0000 0.2500  plane waves:    3835
 k-point    34 :   0.3846 0.0000 0.2500  plane waves:    3815
 k-point    35 :   0.4615 0.0000 0.2500  plane waves:    3818
 k-point    36 :   0.0769 0.0769 0.2500  plane waves:    3841
 k-point    37 :   0.1538 0.0769 0.2500  plane waves:    3833
 k-point    38 :   0.2308 0.0769 0.2500  plane waves:    3834
 k-point    39 :   0.3077 0.0769 0.2500  plane waves:    3824
 k-point    40 :   0.3846 0.0769 0.2500  plane waves:    3815
 k-point    41 :   0.4615 0.0769 0.2500  plane waves:    3815
 k-point    42 :   0.1538 0.1538 0.2500  plane waves:    3835
 k-point    43 :   0.2308 0.1538 0.2500  plane waves:    3830
 k-point    44 :   0.3077 0.1538 0.2500  plane waves:    3814
 k-point    45 :   0.3846 0.1538 0.2500  plane waves:    3817
 k-point    46 :   0.4615 0.1538 0.2500  plane waves:    3820
 k-point    47 :   0.2308 0.2308 0.2500  plane waves:    3824
 k-point    48 :   0.3077 0.2308 0.2500  plane waves:    3818
 k-point    49 :   0.3846 0.2308 0.2500  plane waves:    3811
 k-point    50 :   0.4615 0.2308 0.2500  plane waves:    3808
 k-point    51 :   0.3077 0.3077 0.2500  plane waves:    3811
 k-point    52 :   0.3846 0.3077 0.2500  plane waves:    3819
 k-point    53 :   0.4615 0.3077 0.2500  plane waves:    3821
 k-point    54 :   0.3846 0.3846 0.2500  plane waves:    3830
 k-point    55 :   0.4615 0.3846 0.2500  plane waves:    3836
 k-point    56 :   0.4615 0.4615 0.2500  plane waves:    3835
 k-point    57 :   0.0000 0.0000 0.5000  plane waves:    3824
 k-point    58 :   0.0769 0.0000 0.5000  plane waves:    3824
 k-point    59 :   0.1538 0.0000 0.5000  plane waves:    3826
 k-point    60 :   0.2308 0.0000 0.5000  plane waves:    3830
 k-point    61 :   0.3077 0.0000 0.5000  plane waves:    3828
 k-point    62 :   0.3846 0.0000 0.5000  plane waves:    3798
 k-point    63 :   0.4615 0.0000 0.5000  plane waves:    3822
 k-point    64 :   0.0769 0.0769 0.5000  plane waves:    3826
 k-point    65 :   0.1538 0.0769 0.5000  plane waves:    3840
 k-point    66 :   0.2308 0.0769 0.5000  plane waves:    3834
 k-point    67 :   0.3077 0.0769 0.5000  plane waves:    3816
 k-point    68 :   0.3846 0.0769 0.5000  plane waves:    3810
 k-point    69 :   0.4615 0.0769 0.5000  plane waves:    3814
 k-point    70 :   0.1538 0.1538 0.5000  plane waves:    3852
 k-point    71 :   0.2308 0.1538 0.5000  plane waves:    3822
 k-point    72 :   0.3077 0.1538 0.5000  plane waves:    3800
 k-point    73 :   0.3846 0.1538 0.5000  plane waves:    3828
 k-point    74 :   0.4615 0.1538 0.5000  plane waves:    3816
 k-point    75 :   0.2308 0.2308 0.5000  plane waves:    3818
 k-point    76 :   0.3077 0.2308 0.5000  plane waves:    3816
 k-point    77 :   0.3846 0.2308 0.5000  plane waves:    3816
 k-point    78 :   0.4615 0.2308 0.5000  plane waves:    3820
 k-point    79 :   0.3077 0.3077 0.5000  plane waves:    3814
 k-point    80 :   0.3846 0.3077 0.5000  plane waves:    3830
 k-point    81 :   0.4615 0.3077 0.5000  plane waves:    3818
 k-point    82 :   0.3846 0.3846 0.5000  plane waves:    3830
 k-point    83 :   0.4615 0.3846 0.5000  plane waves:    3826
 k-point    84 :   0.4615 0.4615 0.5000  plane waves:    3834

 maximum and minimum number of plane-waves per node :      3865     3796

 maximum number of plane-waves:      3865
 maximum index in each direction: 
   IXMAX=    6   IYMAX=    6   IZMAX=   20
   IXMIN=   -7   IYMIN=   -7   IZMIN=  -20


 serial   3D FFT for wavefunctions
 parallel 3D FFT for charge:
    minimum data exchange during FFTs selected (reduces bandwidth)


 total amount of memory used by VASP MPI-rank0   176528. kBytes
=======================================================================

   base      :      30000. kBytes
   nonl-proj :      94414. kBytes
   fftplans  :        888. kBytes
   grid      :       6813. kBytes
   one-center:        373. kBytes
   wavefun   :      44040. kBytes
 
     INWAV:  cpu time      0.0000: real time      0.0000
 Broyden mixing: mesh for mixing (old mesh)
   NGX = 13   NGY = 13   NGZ = 41
  (NGX  = 56   NGY  = 56   NGZ  =168)
  gives a total of   6929 points

 initial charge density was supplied:
 charge density of overlapping atoms calculated
 number of electron     156.0000000 magnetization       7.9090000
 keeping initial charge density in first step


--------------------------------------------------------------------------------------------------------


 Maximum index for augmentation-charges         1095 (set IRDMAX)


--------------------------------------------------------------------------------------------------------


 First call to EWALD:  gamma=   0.340
 Maximum number of real-space cells 4x 4x 2
 Maximum number of reciprocal cells 2x 2x 5

    FEWALD:  cpu time      0.0022: real time      0.0022


--------------------------------------- Ionic step        1  -------------------------------------------




--------------------------------------- Iteration      1(   1)  ---------------------------------------


    POTLOK:  cpu time      0.0394: real time      0.0407
    SETDIJ:  cpu time      0.0137: real time      0.0139
     EDDAV:  cpu time      5.5251: real time      5.5671
 BZINTS: Fermi energy:   24.597745;  156.000000 electrons
         Band energy: 0.694669E+03;  BLOECHL correction:   -0.052868
       DOS:  cpu time      0.1255: real time      0.1270
    --------------------------------------------
      LOOP:  cpu time      5.7038: real time      5.7489

 eigenvalue-minimisations  : 43104
 total energy-change (2. order) : 0.1759768E+04  (-0.8391623E+04)
 number of electron     156.0000000 magnetization       7.9090000
 augmentation part      156.0000000 magnetization       7.9090000

 Free energy of the ion-electron system (eV)
  ---------------------------------------------------
  alpha Z        PSCENC =      1198.52203918
  Ewald energy   TEWEN  =    -18666.03894729
  -Hartree energ DENC   =     -5707.15437841
  -exchange      EXHF   =         0.00000000
  -V(xc)+E(xc)   XCENC  =       659.75583657
  PAW double counting   =     20095.68712022   -20819.77557979
  entropy T*S    EENTRO =         0.00000000
  eigenvalues    EBANDS =       694.66869094
  atomic energy  EATOM  =     24304.10294433
  Solvation  Ediel_sol  =         0.00000000
  ---------------------------------------------------
  free energy    TOTEN  =      1759.76772575 eV

  energy without entropy =     1759.76772575  energy(sigma->0) =     1759.76772575


--------------------------------------------------------------------------------------------------------




--------------------------------------- Iteration      1(   2)  ---------------------------------------


     EDDAV:  cpu time      5.5593: real time      5.6144
 BZINTS: Fermi energy:   13.643336;  156.000000 electrons
         Band energy:-0.105950E+04;  BLOECHL correction:   -0.019620
       DOS:  cpu time      0.1298: real time      0.1305
    --------------------------------------------
      LOOP:  cpu time      5.6889: real time      5.7447

 eigenvalue-minimisations  : 43008
 total energy-change (2. order) :-0.1754173E+04  (-0.1664506E+04)
 number of electron     156.0000000 magnetization       7.9090000
 augmentation part      156.0000000 magnetization       7.9090000

 Free energy of the ion-electron system (eV)
  ---------------------------------------------------
  alpha Z        PSCENC =      1198.52203918
  Ewald energy   TEWEN  =    -18666.03894729
  -Hartree energ DENC   =     -5707.15437841
  -exchange      EXHF   =         0.00000000
  -V(xc)+E(xc)   XCENC  =       659.75583657
  PAW double counting   =     20095.68712022   -20819.77557979
  entropy T*S    EENTRO =         0.00000000
  eigenvalues    EBANDS =     -1059.50427499
  atomic energy  EATOM  =     24304.10294433
  Solvation  Ediel_sol  =         0.00000000
  ---------------------------------------------------
  free energy    TOTEN  =         5.59475981 eV

  energy without entropy =        5.59475981  energy(sigma->0) =        5.59475981


--------------------------------------------------------------------------------------------------------




--------------------------------------- Iteration      1(   3)  ---------------------------------------


     EDDAV:  cpu time      6.6667: real time      6.7279
 BZINTS: Fermi energy:   13.062817;  156.000000 electrons
         Band energy:-0.116840E+04;  BLOECHL correction:   -0.026820
       DOS:  cpu time      0.1266: real time      0.1279
    --------------------------------------------
      LOOP:  cpu time      6.7934: real time      6.8558

 eigenvalue-minimisations  : 50688
 total energy-change (2. order) :-0.1088917E+03  (-0.1076044E+03)
 number of electron     156.0000000 magnetization       7.9090000
 augmentation part      156.0000000 magnetization       7.9090000

 Free energy of the ion-electron system (eV)
  ---------------------------------------------------
  alpha Z        PSCENC =      1198.52203918
  Ewald energy   TEWEN  =    -18666.03894729
  -Hartree energ DENC   =     -5707.15437841
  -exchange      EXHF   =         0.00000000
  -V(xc)+E(xc)   XCENC  =       659.75583657
  PAW double counting   =     20095.68712022   -20819.77557979
  entropy T*S    EENTRO =         0.00000000
  eigenvalues    EBANDS =     -1168.39594567
  atomic energy  EATOM  =     24304.10294433
  Solvation  Ediel_sol  =         0.00000000
  ---------------------------------------------------
  free energy    TOTEN  =      -103.29691087 eV

  energy without entropy =     -103.29691087  energy(sigma->0) =     -103.29691087


--------------------------------------------------------------------------------------------------------




--------------------------------------- Iteration      1(   4)  ---------------------------------------


     EDDAV:  cpu time      6.0180: real time      6.0757
 BZINTS: Fermi energy:   13.057892;  156.000000 electrons
         Band energy:-0.116989E+04;  BLOECHL correction:   -0.026842
       DOS:  cpu time      0.1260: real time      0.1278
    --------------------------------------------
      LOOP:  cpu time      6.1440: real time      6.2035

 eigenvalue-minimisations  : 45824
 total energy-change (2. order) :-0.1495038E+01  (-0.1494745E+01)
 number of electron     156.0000000 magnetization       7.9090000
 augmentation part      156.0000000 magnetization       7.9090000

 Free energy of the ion-electron system (eV)
  ---------------------------------------------------
  alpha Z        PSCENC =      1198.52203918
  Ewald energy   TEWEN  =    -18666.03894729
  -Hartree energ DENC   =     -5707.15437841
  -exchange      EXHF   =         0.00000000
  -V(xc)+E(xc)   XCENC  =       659.75583657
  PAW double counting   =     20095.68712022   -20819.77557979
  entropy T*S    EENTRO =         0.00000000
  eigenvalues    EBANDS =     -1169.89098402
  atomic energy  EATOM  =     24304.10294433
  Solvation  Ediel_sol  =         0.00000000
  ---------------------------------------------------
  free energy    TOTEN  =      -104.79194922 eV

  energy without entropy =     -104.79194922  energy(sigma->0) =     -104.79194922


--------------------------------------------------------------------------------------------------------




--------------------------------------- Iteration      1(   5)  ---------------------------------------


     EDDAV:  cpu time      7.0969: real time      7.1590
 BZINTS: Fermi energy:   13.057845;  156.000000 electrons
         Band energy:-0.116992E+04;  BLOECHL correction:   -0.026842
       DOS:  cpu time      0.1272: real time      0.1283
    CHARGE:  cpu time      0.1493: real time      0.1506
    MIXING:  cpu time      0.0077: real time      0.0082
    --------------------------------------------
      LOOP:  cpu time      7.3811: real time      7.4461

 eigenvalue-minimisations  : 52992
 total energy-change (2. order) :-0.2640283E-01  (-0.2640215E-01)
 number of electron     155.9999764 magnetization       7.3086326
 augmentation part       79.2611217 magnetization       5.5278682

 Broyden mixing:
  rms(total) = 0.42760E+01    rms(broyden)= 0.42756E+01
  rms(prec ) = 0.47340E+01
  weight for this iteration     100.00

 Free energy of the ion-electron system (eV)
  ---------------------------------------------------
  alpha Z        PSCENC =      1198.52203918
  Ewald energy   TEWEN  =    -18666.03894729
  -Hartree energ DENC   =     -5707.15437841
  -exchange      EXHF   =         0.00000000
  -V(xc)+E(xc)   XCENC  =       659.75583657
  PAW double counting   =     20095.68712022   -20819.77557979
  entropy T*S    EENTRO =         0.00000000
  eigenvalues    EBANDS =     -1169.91738685
  atomic energy  EATOM  =     24304.10294433
  Solvation  Ediel_sol  =         0.00000000
  ---------------------------------------------------
  free energy    TOTEN  =      -104.81835205 eV

  energy without entropy =     -104.81835205  energy(sigma->0) =     -104.81835205


--------------------------------------------------------------------------------------------------------




--------------------------------------- Iteration      1(   6)  ---------------------------------------


    POTLOK:  cpu time      0.0441: real time      0.0450
    SETDIJ:  cpu time      0.0078: real time      0.0079
     EDDAV:  cpu time      6.7296: real time      6.7753
 BZINTS: Fermi energy:   10.392171;  156.000000 electrons
         Band energy:-0.156955E+04;  BLOECHL correction:   -0.029002
       DOS:  cpu time      0.1325: real time      0.1335
    CHARGE:  cpu time      0.1475: real time      0.1486
    MIXING:  cpu time      0.0024: real time      0.0025
    --------------------------------------------
      LOOP:  cpu time      7.0640: real time      7.1126

 eigenvalue-minimisations  : 50656
 total energy-change (2. order) :-0.9849554E+00  (-0.1224433E+02)
 number of electron     155.9999738 magnetization       6.9570322
 augmentation part       87.6512570 magnetization       5.6842712

 Broyden mixing:
  rms(total) = 0.52208E+01    rms(broyden)= 0.52206E+01
  rms(prec ) = 0.77863E+01
  weight for this iteration     100.00

 eigenvalues of (default mixing * dielectric matrix)
  average eigenvalue GAMMA=   0.3626
  0.3626

 Free energy of the ion-electron system (eV)
  ---------------------------------------------------
  alpha Z        PSCENC =      1198.52203918
  Ewald energy   TEWEN  =    -18666.03894729
  -Hartree energ DENC   =     -5311.76351254
  -exchange      EXHF   =         0.00000000
  -V(xc)+E(xc)   XCENC  =       642.26877369
  PAW double counting   =     20774.39066680   -21477.73729578
  entropy T*S    EENTRO =         0.00000000
  eigenvalues    EBANDS =     -1569.54797581
  atomic energy  EATOM  =     24304.10294433
  Solvation  Ediel_sol  =         0.00000000
  ---------------------------------------------------
  free energy    TOTEN  =      -105.80330742 eV

  energy without entropy =     -105.80330742  energy(sigma->0) =     -105.80330742


--------------------------------------------------------------------------------------------------------




--------------------------------------- Iteration      1(   7)  ---------------------------------------


    POTLOK:  cpu time      0.0435: real time      0.0443
    SETDIJ:  cpu time      0.0087: real time      0.0087
     EDDAV:  cpu time      7.1361: real time      7.1837
 BZINTS: Fermi energy:   11.505728;  156.000000 electrons
         Band energy:-0.148406E+04;  BLOECHL correction:   -0.021150
       DOS:  cpu time      0.1334: real time      0.1342
    CHARGE:  cpu time      0.1496: real time      0.1504
    MIXING:  cpu time      0.0024: real time      0.0025
    --------------------------------------------
      LOOP:  cpu time      7.4736: real time      7.5239

 eigenvalue-minimisations  : 53504
 total energy-change (2. order) :-0.1517386E+02  (-0.4470035E+02)
 number of electron     155.9999749 magnetization       6.2200418
 augmentation part       84.8780213 magnetization       5.3250667

 Broyden mixing:
  rms(total) = 0.69441E+01    rms(broyden)= 0.69438E+01
  rms(prec ) = 0.11068E+02
  weight for this iteration     100.00

 eigenvalues of (default mixing * dielectric matrix)
  average eigenvalue GAMMA=   0.3712
  0.6195  0.1229

 Free energy of the ion-electron system (eV)
  ---------------------------------------------------
  alpha Z        PSCENC =      1198.52203918
  Ewald energy   TEWEN  =    -18666.03894729
  -Hartree energ DENC   =     -5396.31345730
  -exchange      EXHF   =         0.00000000
  -V(xc)+E(xc)   XCENC  =       644.84971563
  PAW double counting   =     21166.79107647   -21888.82735052
  entropy T*S    EENTRO =         0.00000000
  eigenvalues    EBANDS =     -1484.06319257
  atomic energy  EATOM  =     24304.10294433
  Solvation  Ediel_sol  =         0.00000000
  ---------------------------------------------------
  free energy    TOTEN  =      -120.97717207 eV

  energy without entropy =     -120.97717207  energy(sigma->0) =     -120.97717207


--------------------------------------------------------------------------------------------------------




--------------------------------------- Iteration      1(   8)  ---------------------------------------


    POTLOK:  cpu time      0.0310: real time      0.0446
    SETDIJ:  cpu time      0.0082: real time      0.0082
     EDDAV:  cpu time      6.7662: real time      6.8120
 BZINTS: Fermi energy:   11.688866;  156.000000 electrons
         Band energy:-0.138253E+04;  BLOECHL correction:   -0.024046
       DOS:  cpu time      0.1330: real time      0.1340
    CHARGE:  cpu time      0.1500: real time      0.1507
    MIXING:  cpu time      0.0017: real time      0.0017
    --------------------------------------------
      LOOP:  cpu time      7.0901: real time      7.1512

 eigenvalue-minimisations  : 51936
 total energy-change (2. order) : 0.2236875E+02  (-0.1131742E+02)
 number of electron     155.9999760 magnetization       5.9014246
 augmentation part       83.2967473 magnetization       3.9734707

 Broyden mixing:
  rms(total) = 0.35550E+01    rms(broyden)= 0.35545E+01
  rms(prec ) = 0.50043E+01
  weight for this iteration     100.00

 eigenvalues of (default mixing * dielectric matrix)
  average eigenvalue GAMMA=   0.4544
  0.9228  0.3183  0.1221

 Free energy of the ion-electron system (eV)
  ---------------------------------------------------
  alpha Z        PSCENC =      1198.52203918
  Ewald energy   TEWEN  =    -18666.03894729
  -Hartree energ DENC   =     -5456.34046800
  -exchange      EXHF   =         0.00000000
  -V(xc)+E(xc)   XCENC  =       646.46645039
  PAW double counting   =     21695.76448628   -22438.55183129
  entropy T*S    EENTRO =         0.00000000
  eigenvalues    EBANDS =     -1382.53309229
  atomic energy  EATOM  =     24304.10294433
  Solvation  Ediel_sol  =         0.00000000
  ---------------------------------------------------
  free energy    TOTEN  =       -98.60841869 eV

  energy without entropy =      -98.60841869  energy(sigma->0) =      -98.60841869


--------------------------------------------------------------------------------------------------------




--------------------------------------- Iteration      1(   9)  ---------------------------------------


    POTLOK:  cpu time      0.0302: real time      0.0454
    SETDIJ:  cpu time      0.0079: real time      0.0079
     EDDAV:  cpu time      6.7277: real time      6.7741
 BZINTS: Fermi energy:   11.638680;  156.000000 electrons
         Band energy:-0.140625E+04;  BLOECHL correction:   -0.016344
       DOS:  cpu time      0.1323: real time      0.1332
    CHARGE:  cpu time      0.1475: real time      0.1483
    MIXING:  cpu time      0.0017: real time      0.0017
    --------------------------------------------
      LOOP:  cpu time      7.0473: real time      7.1105

 eigenvalue-minimisations  : 51360
 total energy-change (2. order) :-0.6448611E+01  (-0.1936586E+02)
 number of electron     155.9999753 magnetization       5.4324568
 augmentation part       83.7670278 magnetization       4.1737787

 Broyden mixing:
  rms(total) = 0.47656E+01    rms(broyden)= 0.47654E+01
  rms(prec ) = 0.67938E+01
  weight for this iteration     100.00

 eigenvalues of (default mixing * dielectric matrix)
  average eigenvalue GAMMA=   0.4661
  1.2269  0.4073  0.1289  0.1011

 Free energy of the ion-electron system (eV)
  ---------------------------------------------------
  alpha Z        PSCENC =      1198.52203918
  Ewald energy   TEWEN  =    -18666.03894729
  -Hartree energ DENC   =     -5433.76482175
  -exchange      EXHF   =         0.00000000
  -V(xc)+E(xc)   XCENC  =       645.56520005
  PAW double counting   =     21920.32712901   -22667.51635530
  entropy T*S    EENTRO =         0.00000000
  eigenvalues    EBANDS =     -1406.25421764
  atomic energy  EATOM  =     24304.10294433
  Solvation  Ediel_sol  =         0.00000000
  ---------------------------------------------------
  free energy    TOTEN  =      -105.05702941 eV

  energy without entropy =     -105.05702941  energy(sigma->0) =     -105.05702941


--------------------------------------------------------------------------------------------------------




--------------------------------------- Iteration      1(  10)  ---------------------------------------


    POTLOK:  cpu time      0.0310: real time      0.0447
    SETDIJ:  cpu time      0.0083: real time      0.0084
     EDDAV:  cpu time      6.5873: real time      6.6314
 BZINTS: Fermi energy:   11.111632;  156.000000 electrons
         Band energy:-0.143938E+04;  BLOECHL correction:   -0.023287
       DOS:  cpu time      0.1323: real time      0.1332
    CHARGE:  cpu time      0.1471: real time      0.1480
    MIXING:  cpu time      0.0018: real time      0.0019
    --------------------------------------------
      LOOP:  cpu time      6.9080: real time      6.9676

 eigenvalue-minimisations  : 50688
 total energy-change (2. order) : 0.1027763E+02  (-0.7387658E+01)
 number of electron     155.9999748 magnetization       5.3350905
 augmentation part       84.6042019 magnetization       4.3015967

 Broyden mixing:
  rms(total) = 0.25852E+01    rms(broyden)= 0.25848E+01
  rms(prec ) = 0.38354E+01
  weight for this iteration     100.00

 eigenvalues of (default mixing * dielectric matrix)
  average eigenvalue GAMMA=   0.4216
  1.2086  0.3918  0.2602  0.1438  0.1036

 Free energy of the ion-electron system (eV)
  ---------------------------------------------------
  alpha Z        PSCENC =      1198.52203918
  Ewald energy   TEWEN  =    -18666.03894729
  -Hartree energ DENC   =     -5385.19955231
  -exchange      EXHF   =         0.00000000
  -V(xc)+E(xc)   XCENC  =       643.86256249
  PAW double counting   =     22197.46801029   -22948.12103917
  entropy T*S    EENTRO =         0.00000000
  eigenvalues    EBANDS =     -1439.37541324
  atomic energy  EATOM  =     24304.10294433
  Solvation  Ediel_sol  =         0.00000000
  ---------------------------------------------------
  free energy    TOTEN  =       -94.77939572 eV

  energy without entropy =      -94.77939572  energy(sigma->0) =      -94.77939572


--------------------------------------------------------------------------------------------------------




--------------------------------------- Iteration      1(  11)  ---------------------------------------


    POTLOK:  cpu time      0.0299: real time      0.0449
    SETDIJ:  cpu time      0.0083: real time      0.0084
     EDDAV:  cpu time      7.0142: real time      7.0607
 BZINTS: Fermi energy:   11.141322;  156.000000 electrons
         Band energy:-0.143990E+04;  BLOECHL correction:   -0.026028
       DOS:  cpu time      0.1330: real time      0.1339
    CHARGE:  cpu time      0.1467: real time      0.1475
    MIXING:  cpu time      0.0018: real time      0.0018
    --------------------------------------------
      LOOP:  cpu time      7.3340: real time      7.3973

 eigenvalue-minimisations  : 52704
 total energy-change (2. order) : 0.2176835E+01  (-0.2700366E+01)
 number of electron     155.9999751 magnetization       5.2349938
 augmentation part       84.4686211 magnetization       3.8409447

 Broyden mixing:
  rms(total) = 0.17331E+01    rms(broyden)= 0.17327E+01
  rms(prec ) = 0.24782E+01
  weight for this iteration     100.00

 eigenvalues of (default mixing * dielectric matrix)
  average eigenvalue GAMMA=   0.4355
  1.2174  0.5291  0.5291  0.1427  0.1022  0.0927

 Free energy of the ion-electron system (eV)
  ---------------------------------------------------
  alpha Z        PSCENC =      1198.52203918
  Ewald energy   TEWEN  =    -18666.03894729
  -Hartree energ DENC   =     -5381.83121667
  -exchange      EXHF   =         0.00000000
  -V(xc)+E(xc)   XCENC  =       643.81331821
  PAW double counting   =     22224.98688546   -22976.25884966
  entropy T*S    EENTRO =         0.00000000
  eigenvalues    EBANDS =     -1439.89873422
  atomic energy  EATOM  =     24304.10294433
  Solvation  Ediel_sol  =         0.00000000
  ---------------------------------------------------
  free energy    TOTEN  =       -92.60256066 eV

  energy without entropy =      -92.60256066  energy(sigma->0) =      -92.60256066


--------------------------------------------------------------------------------------------------------




--------------------------------------- Iteration      1(  12)  ---------------------------------------


    POTLOK:  cpu time      0.0299: real time      0.0452
    SETDIJ:  cpu time      0.0076: real time      0.0076
     EDDAV:  cpu time      7.0782: real time      7.1233
 BZINTS: Fermi energy:   11.131654;  156.000000 electrons
         Band energy:-0.144095E+04;  BLOECHL correction:   -0.033460
       DOS:  cpu time      0.1320: real time      0.1331
    CHARGE:  cpu time      0.1524: real time      0.1532
    MIXING:  cpu time      0.0018: real time      0.0019
    --------------------------------------------
      LOOP:  cpu time      7.4018: real time      7.4644

 eigenvalue-minimisations  : 52960
 total energy-change (2. order) :-0.7745716E+00  (-0.2038084E+01)
 number of electron     155.9999746 magnetization       5.2189960
 augmentation part       84.4350650 magnetization       3.6782309

 Broyden mixing:
  rms(total) = 0.18383E+01    rms(broyden)= 0.18379E+01
  rms(prec ) = 0.31576E+01
  weight for this iteration     100.00

 eigenvalues of (default mixing * dielectric matrix)
  average eigenvalue GAMMA=   0.4048
  1.2790  0.5229  0.5229  0.1864  0.1173  0.1173  0.0876

 Free energy of the ion-electron system (eV)
  ---------------------------------------------------
  alpha Z        PSCENC =      1198.52203918
  Ewald energy   TEWEN  =    -18666.03894729
  -Hartree energ DENC   =     -5379.53097587
  -exchange      EXHF   =         0.00000000
  -V(xc)+E(xc)   XCENC  =       643.87618959
  PAW double counting   =     22281.05211413   -23034.41122754
  entropy T*S    EENTRO =         0.00000000
  eigenvalues    EBANDS =     -1440.94926884
  atomic energy  EATOM  =     24304.10294433
  Solvation  Ediel_sol  =         0.00000000
  ---------------------------------------------------
  free energy    TOTEN  =       -93.37713231 eV

  energy without entropy =      -93.37713231  energy(sigma->0) =      -93.37713231


--------------------------------------------------------------------------------------------------------




--------------------------------------- Iteration      1(  13)  ---------------------------------------


    POTLOK:  cpu time      0.0295: real time      0.0448
    SETDIJ:  cpu time      0.0083: real time      0.0083
     EDDAV:  cpu time      6.8466: real time      6.8931
 BZINTS: Fermi energy:   11.072986;  156.000000 electrons
         Band energy:-0.144085E+04;  BLOECHL correction:   -0.029097
       DOS:  cpu time      0.1325: real time      0.1334
    CHARGE:  cpu time      0.1491: real time      0.1501
    MIXING:  cpu time      0.0018: real time      0.0018
    --------------------------------------------
      LOOP:  cpu time      7.1678: real time      7.2316

 eigenvalue-minimisations  : 52096
 total energy-change (2. order) : 0.1073009E+01  (-0.1297442E+01)
 number of electron     155.9999753 magnetization       5.2973428
 augmentation part       84.5246121 magnetization       3.8677482

 Broyden mixing:
  rms(total) = 0.78812E+00    rms(broyden)= 0.78780E+00
  rms(prec ) = 0.10801E+01
  weight for this iteration     100.00

 eigenvalues of (default mixing * dielectric matrix)
  average eigenvalue GAMMA=   0.4197
  1.2291  0.6847  0.6847  0.3396  0.1369  0.1126  0.0946  0.0751

 Free energy of the ion-electron system (eV)
  ---------------------------------------------------
  alpha Z        PSCENC =      1198.52203918
  Ewald energy   TEWEN  =    -18666.03894729
  -Hartree energ DENC   =     -5377.85456851
  -exchange      EXHF   =         0.00000000
  -V(xc)+E(xc)   XCENC  =       643.79405782
  PAW double counting   =     22301.98894790   -23055.96508162
  entropy T*S    EENTRO =         0.00000000
  eigenvalues    EBANDS =     -1440.85351546
  atomic energy  EATOM  =     24304.10294433
  Solvation  Ediel_sol  =         0.00000000
  ---------------------------------------------------
  free energy    TOTEN  =       -92.30412364 eV

  energy without entropy =      -92.30412364  energy(sigma->0) =      -92.30412364


--------------------------------------------------------------------------------------------------------




--------------------------------------- Iteration      1(  14)  ---------------------------------------


    POTLOK:  cpu time      0.0437: real time      0.0446
    SETDIJ:  cpu time      0.0083: real time      0.0084
     EDDAV:  cpu time      6.9610: real time      7.0067
[...]
    113      26.5604      0.00000
    114      26.9523      0.00000
    115      26.9796      0.00000
    116      27.3182      0.00000
    117      27.4533      0.00000
    118      28.3004      0.00000
    119      28.4453      0.00000
    120      29.0849      0.00000
    121      29.1256      0.00000
    122      29.1515      0.00000
    123      29.6994      0.00000
    124      30.7521      0.00000
    125      31.0032      0.00000
    126      31.2029      0.00000
    127      31.4055      0.00000
    128      32.1695      0.00000


--------------------------------------------------------------------------------------------------------


 soft charge-density along one line, spin component           1
         0         1         2         3         4         5         6         7         8         9
 total charge-density along one line
 
 soft charge-density along one line, spin component           2
         0         1         2         3         4         5         6         7         8         9
 total charge-density along one line
 
 pseudopotential strength for first ion, spin component:           1
-42.123  -0.000   0.000   6.423   0.000  -0.000   0.000  -0.001
 -0.000 -42.161   0.000   0.000   6.438  -0.000   0.000   0.000
  0.000   0.000 -42.102  -0.000  -0.000   6.413   0.000   0.000
  6.423   0.000  -0.000   5.941   0.000  -0.000  -0.000   0.000
  0.000   6.438  -0.000   0.000   5.937  -0.000  -0.000  -0.000
 -0.000  -0.000   6.413  -0.000  -0.000   5.941  -0.000  -0.000
  0.000   0.000   0.000  -0.000  -0.000  -0.000   0.194   0.000
 -0.001   0.000   0.000   0.000  -0.000  -0.000   0.000   0.202
 -0.000  -0.002  -0.000   0.000   0.002   0.000  -0.000  -0.000
  0.000   0.000  -0.010  -0.000  -0.000   0.006  -0.000   0.000
 -0.000  -0.004   0.000   0.000   0.003  -0.000  -0.000   0.000
 -0.000   0.000   0.000  -0.000  -0.000  -0.000  -0.356   0.000
 -0.001   0.000   0.000   0.000  -0.000  -0.000   0.000  -0.348
 -0.000  -0.001  -0.000   0.000   0.002   0.000  -0.000  -0.000
  0.000   0.000  -0.009  -0.000  -0.000   0.006  -0.000   0.000
 -0.000  -0.004  -0.000   0.000   0.003  -0.000  -0.000   0.000
 -0.000   0.003  -0.000  -0.000   0.001  -0.000  -0.000   0.000
 -0.000   0.008  -0.000  -0.000   0.003   0.000  -0.000   0.000
 pseudopotential strength for first ion, spin component:           2
-43.918  -0.000   0.000   7.181   0.000  -0.000  -0.000   0.004
 -0.000 -43.990   0.000   0.000   7.209  -0.000   0.000   0.000
  0.000   0.000 -43.849  -0.000  -0.000   7.152   0.000   0.000
  7.181   0.000  -0.000   5.731   0.000  -0.000  -0.000  -0.003
  0.000   7.209  -0.000   0.000   5.725  -0.000  -0.000  -0.000
 -0.000  -0.000   7.152  -0.000  -0.000   5.735  -0.000  -0.000
 -0.000   0.000   0.000  -0.000  -0.000  -0.000  -1.170   0.000
  0.004   0.000   0.000  -0.003  -0.000  -0.000   0.000  -1.328
 -0.000   0.012   0.000   0.000  -0.006  -0.000  -0.000  -0.000
  0.000  -0.000   0.020  -0.000   0.000  -0.010  -0.000   0.000
 -0.000   0.008  -0.000   0.000  -0.003   0.000   0.000   0.000
 -0.000   0.000   0.000   0.000  -0.000  -0.000  -1.698   0.000
  0.004   0.000   0.000  -0.003  -0.000  -0.000   0.000  -1.854
 -0.000   0.012   0.000   0.000  -0.006  -0.000  -0.000  -0.000
  0.000   0.000   0.020  -0.000   0.000  -0.009  -0.000   0.000
 -0.000   0.008  -0.000   0.000  -0.003   0.000   0.000   0.000
 -0.000  -0.004   0.000  -0.000   0.003   0.000  -0.000   0.000
 -0.000  -0.012  -0.000  -0.000   0.008   0.000  -0.000   0.000
 total augmentation occupancy for first ion, spin component:           1
  1.992   0.000   0.000  -0.025   0.000   0.000   0.000  -0.005   0.000   0.000   0.000   0.000   0.005   0.000   0.000   0.000
  0.000   1.992   0.000   0.000  -0.025   0.000   0.000   0.000  -0.003   0.000   0.002  -0.000   0.000   0.003   0.000  -0.002
  0.000   0.000   1.992   0.000  -0.000  -0.026   0.000  -0.000   0.000  -0.001   0.000  -0.000  -0.000   0.000   0.002   0.000
 -0.025   0.000   0.000   0.213   0.000   0.000   0.000  -0.013   0.000   0.000   0.000   0.000   0.017   0.000   0.000   0.000
  0.000  -0.025  -0.000   0.000   0.214   0.000  -0.000   0.000  -0.009   0.000   0.013   0.000  -0.000   0.003   0.000  -0.021
  0.000   0.000  -0.026   0.000   0.000   0.191  -0.000   0.000  -0.000   0.007   0.000   0.000   0.000   0.000  -0.022   0.000
  0.000   0.000   0.000   0.000  -0.000  -0.000   2.542  -0.000  -0.000   0.000   0.000  -1.505   0.000   0.000   0.000   0.000
 -0.005   0.000  -0.000  -0.013   0.000   0.000  -0.000   2.895   0.000   0.000   0.000   0.000  -2.197   0.000   0.000   0.000
  0.000  -0.003   0.000   0.000  -0.009  -0.000  -0.000   0.000   3.223   0.000   0.227   0.000   0.000  -1.972   0.000  -0.111
  0.000   0.000  -0.001   0.000   0.000   0.007   0.000   0.000   0.000   2.450   0.000  -0.000   0.000   0.000  -1.446   0.000
  0.000   0.002   0.000   0.000   0.013   0.000   0.000   0.000   0.227   0.000   2.984   0.000   0.000  -0.113   0.000  -1.843
  0.000  -0.000  -0.000   0.000   0.000   0.000  -1.505   0.000   0.000  -0.000   0.000   1.882   0.000  -0.000   0.000   0.000
  0.005   0.000  -0.000   0.017  -0.000   0.000   0.000  -2.197   0.000   0.000   0.000   0.000   2.737   0.000   0.000   0.000
  0.000   0.003   0.000   0.000   0.003   0.000   0.000   0.000  -1.972   0.000  -0.113  -0.000   0.000   2.050   0.000   0.038
  0.000   0.000   0.002   0.000   0.000  -0.022   0.000   0.000   0.000  -1.446   0.000   0.000   0.000   0.000   1.826   0.000
  0.000  -0.002   0.000   0.000  -0.021   0.000   0.000   0.000  -0.111   0.000  -1.843   0.000   0.000   0.038   0.000   2.004
  0.000  -0.001  -0.000   0.000   0.002  -0.000   0.000   0.000  -0.122   0.000   0.201   0.000   0.000   0.089   0.000  -0.160
  0.000   0.001   0.000   0.000  -0.000   0.000   0.000   0.000   0.012   0.000  -0.012   0.000   0.000  -0.007   0.000   0.009
 total augmentation occupancy for first ion, spin component:           2
  0.002   0.000   0.000   0.007   0.000   0.000   0.000   0.003   0.000  -0.000   0.000   0.000  -0.003   0.000   0.000   0.000
  0.000   0.002  -0.000   0.000   0.007   0.000   0.000   0.000   0.005   0.000   0.004   0.000  -0.000  -0.006   0.000  -0.004
  0.000  -0.000   0.002   0.000   0.000   0.007  -0.000  -0.000   0.000   0.011   0.000   0.000   0.000   0.000  -0.012   0.000
  0.007   0.000   0.000  -0.007   0.000   0.000   0.000   0.016   0.000   0.000   0.000   0.000  -0.016   0.000   0.000   0.000
  0.000   0.007   0.000   0.000  -0.001  -0.000   0.000   0.000  -0.011   0.000  -0.041  -0.000  -0.000  -0.005   0.000   0.018
  0.000   0.000   0.007   0.000  -0.000  -0.004   0.000   0.000   0.000  -0.070  -0.000   0.000   0.000   0.000   0.021   0.000
  0.000   0.000  -0.000   0.000   0.000   0.000  -1.669  -0.000   0.000   0.000   0.000   0.723   0.000  -0.000  -0.000   0.000
  0.003   0.000  -0.000   0.016   0.000   0.000  -0.000  -1.687   0.000   0.000   0.000   0.000   0.527  -0.000   0.000   0.000
  0.000   0.005   0.000   0.000  -0.011   0.000   0.000   0.000  -2.204   0.000  -0.030   0.000   0.000   0.941   0.000   0.051
 -0.000   0.000   0.011   0.000   0.000  -0.070   0.000   0.000   0.000  -1.484   0.000   0.000   0.000   0.000   0.488   0.000
  0.000   0.004   0.000   0.000  -0.041  -0.000   0.000   0.000  -0.030   0.000  -2.062   0.000  -0.000   0.050  -0.000   0.769
  0.000   0.000   0.000   0.000  -0.000   0.000   0.723   0.000   0.000   0.000   0.000  -0.142   0.000   0.000   0.000   0.000
 -0.003  -0.000   0.000  -0.016  -0.000   0.000   0.000   0.527   0.000   0.000  -0.000   0.000   0.111   0.000   0.000  -0.000
  0.000  -0.006   0.000   0.000  -0.005   0.000  -0.000  -0.000   0.941   0.000   0.050   0.000   0.000  -0.269  -0.000  -0.060
  0.000   0.000  -0.012   0.000   0.000   0.021  -0.000   0.000   0.000   0.488  -0.000   0.000   0.000  -0.000   0.081   0.000
  0.000  -0.004   0.000   0.000   0.018   0.000   0.000   0.000   0.051   0.000   0.769   0.000  -0.000  -0.060   0.000  -0.081
  0.000  -0.002  -0.000   0.000  -0.017   0.000   0.000   0.000  -0.018  -0.000  -0.030   0.000   0.000  -0.001   0.000   0.026
  0.000   0.000  -0.000   0.000  -0.000  -0.000   0.000   0.000  -0.006   0.000   0.003   0.000   0.000   0.001   0.000  -0.000


------------------------ aborting loop because EDIFF is reached ----------------------------------------





 total charge

# of ion       s       p       d       tot
------------------------------------------
    1        0.378   6.387   6.105  12.870
    2        0.372   6.377   6.102  12.851
    3        0.375   6.382   6.087  12.843
    4        0.381   6.389   6.090  12.860
    5        0.379   6.387   6.081  12.847
    6        0.374   6.381   6.089  12.844
    7        0.378   6.387   6.105  12.870
    8        0.372   6.377   6.102  12.851
    9        0.375   6.382   6.087  12.843
   10        0.821   0.817   8.063   9.701
   11        0.821   0.806   8.070   9.698
   12        0.807   0.816   8.069   9.692
--------------------------------------------------
tot          5.831  59.888  79.050 144.769



 magnetization (x)

# of ion       s       p       d       tot
------------------------------------------
    1       -0.010  -0.006  -2.100  -2.117
    2        0.000  -0.011   2.406   2.395
    3        0.007   0.003   2.271   2.281
    4       -0.015  -0.022  -2.162  -2.199
    5        0.013   0.021   2.247   2.281
    6       -0.000  -0.014   2.467   2.453
    7       -0.010  -0.006  -2.100  -2.117
    8        0.000  -0.011   2.406   2.395
    9        0.007   0.003   2.271   2.281
   10        0.007   0.010  -0.057  -0.040
   11       -0.009  -0.020   0.102   0.073
   12       -0.037  -0.094   0.362   0.232
--------------------------------------------------
tot         -0.046  -0.148   8.114   7.919
 
    CHARGE:  cpu time      0.1493: real time      0.1501
    FORLOC:  cpu time      0.0015: real time      0.0016
    FORNL :  cpu time      0.6666: real time      0.6705
    STRESS:  cpu time      3.9379: real time      3.9698
    FORCOR:  cpu time      0.0205: real time      0.0206
    FORHAR:  cpu time      0.0027: real time      0.0027
    MIXING:  cpu time      0.0031: real time      0.0031
    OFIELD:  cpu time      0.0002: real time      0.0002

  FORCE on cell =-STRESS in cart. coord.  units (eV):
  Direction    XX          YY          ZZ          XY          YZ          ZX
  --------------------------------------------------------------------------------------
  Alpha Z  1198.52204  1198.52204  1198.52204
  Ewald   -6216.95160 -6216.95160 -6232.15611    -0.00000    -0.00000     0.00000
  Hartree  1793.58494  1793.58494  1779.60502    -0.00000    -0.00000    -0.00000
  E(xc)    -945.99197  -945.99197  -945.95308     0.00000     0.00000     0.00000
  Local    1236.99786  1236.99786  1270.71864     0.00000     0.00000    -0.00000
  n-local  -196.87125  -209.88085  -202.96301    15.90670     0.14877     0.25644
  augment  1436.78286  1436.78286  1433.37644     0.00000    -0.00000     0.00000
  Kinetic  1724.35640  1703.43646  1712.22212     4.53770     0.08296     0.12500
  Fock        0.00000     0.00000     0.00000     0.00000     0.00000     0.00000
  -------------------------------------------------------------------------------------
  Total      13.46449    13.46449    13.37206     0.00000     0.00000     0.00000
  in kB     151.91906   151.91906   150.87611     0.00000     0.00000     0.00000
  external pressure =      151.57 kB  Pullay stress =        0.00 kB


 VOLUME and BASIS-vectors are now :
 -----------------------------------------------------------------------------
  energy-cutoff  :      520.00
  volume of cell :      142.00
      direct lattice vectors                 reciprocal lattice vectors
     3.606893287  0.000000000  0.000000000     0.277246905  0.000000000  0.000000000
     0.000000000  3.606893287  0.000000000     0.000000000  0.277246905  0.000000000
     0.000000000  0.000000000 10.914950166     0.000000000  0.000000000  0.091617459

  length of vectors
     3.606893287  3.606893287 10.914950166     0.277246905  0.277246905  0.091617459


 FORCES acting on ions
    electron-ion (+dipol)            ewald-force                    non-local-force                 convergence-correction
 -----------------------------------------------------------------------------------------------
   -.661E-13 0.821E-12 -.682E+01   0.213E-13 0.109E-13 0.599E+01   -.611E-18 -.113E-17 0.835E+00   0.216E-13 0.204E-13 -.791E-03
   -.588E-13 0.969E-12 -.249E+02   -.113E-13 0.158E-13 0.253E+02   -.144E-19 0.186E-18 -.412E+00   0.193E-13 0.171E-13 -.107E-02
   -.576E-13 0.685E-12 0.338E+02   -.263E-13 0.167E-13 -.350E+02   -.361E-18 -.894E-18 0.118E+01   0.154E-13 0.168E-13 0.189E-02
   0.103E-11 -.456E-11 0.565E+02   0.386E-13 -.193E-13 -.545E+02   -.332E-18 0.485E-18 -.198E+01   -.205E-12 0.603E-14 -.797E-03
   0.103E-11 -.433E-11 -.165E+02   -.931E-13 0.126E-13 0.180E+02   0.400E-19 -.525E-18 -.146E+01   -.203E-12 0.149E-13 0.107E-02
   0.102E-11 -.490E-11 -.259E+02   0.695E-13 -.161E-13 0.260E+02   -.124E-17 -.143E-18 -.102E+00   -.207E-12 0.178E-13 -.456E-03
   0.103E-11 -.108E-12 -.682E+01   -.410E-14 -.890E-14 0.599E+01   0.780E-18 -.411E-18 0.835E+00   -.222E-12 0.166E-13 -.791E-03
   0.102E-11 -.116E-12 -.249E+02   0.182E-13 -.458E-14 0.253E+02   -.150E-17 -.224E-18 -.412E+00   -.211E-12 0.230E-13 -.107E-02
   0.103E-11 0.995E-13 0.338E+02   -.244E-14 0.996E-14 -.350E+02   -.130E-17 0.708E-18 0.118E+01   -.208E-12 0.111E-13 0.189E-02
   -.484E-13 -.534E-13 0.183E+02   -.349E-13 -.114E-13 -.184E+02   -.371E-18 0.453E-19 0.108E+00   0.524E-13 0.736E-14 -.532E-03
   -.471E-13 0.942E-14 -.289E+02   0.508E-13 -.115E-13 0.290E+02   0.151E-18 -.315E-18 -.841E-01   0.529E-13 0.892E-14 0.896E-03
   -.441E-13 -.517E-13 -.734E+01   -.639E-13 -.226E-13 0.719E+01   0.117E-18 -.262E-18 0.156E+00   0.506E-13 0.638E-14 -.386E-03
 -----------------------------------------------------------------------------------------------
   0.585E-11 -.115E-10 0.156E+00   -.376E-13 -.284E-13 -.675E-13   -.465E-17 -.248E-17 -.156E+00   -.104E-11 0.166E-12 -.156E-03
 
 
 POSITION                                       TOTAL-FORCE (eV/Angst)
 -----------------------------------------------------------------------------------
      0.00000      1.80345      1.81701        -0.000000     -0.000000     -0.000120
      0.00000      1.80345      5.44943        -0.000000     -0.000000      0.002366
      0.00000      1.80345      9.11066         0.000000     -0.000000     -0.005473
      1.80345      1.80345      0.03789        -0.000000      0.000000      0.033012
      1.80345      1.80345      3.64480         0.000000     -0.000000     -0.004385
      1.80345      1.80345      7.26001         0.000000      0.000000     -0.000533
      1.80345      0.00000      1.81701        -0.000000      0.000000     -0.000120
      1.80345      0.00000      5.44943        -0.000000      0.000000      0.002366
      1.80345      0.00000      9.11066        -0.000000      0.000000     -0.005473
      0.00000      0.00000     10.90540        -0.000000      0.000000     -0.025590
      0.00000      0.00000      3.60599        -0.000000     -0.000000     -0.004912
      0.00000      0.00000      7.28140        -0.000000     -0.000000      0.008862
 -----------------------------------------------------------------------------------
    total drift:                                0.000000     -0.000000     -0.000299


--------------------------------------------------------------------------------------------------------



  FREE ENERGIE OF THE ION-ELECTRON SYSTEM (eV)
  ---------------------------------------------------
  free  energy   TOTEN  =       -92.83781254 eV

  energy  without entropy=      -92.83781254  energy(sigma->0) =      -92.83781254
 


--------------------------------------------------------------------------------------------------------


    POTLOK:  cpu time      0.0383: real time      0.0389


--------------------------------------------------------------------------------------------------------


     LOOP+:  cpu time    243.8683: real time    246.0728
 -----------------------------------------------------------------------------
|                                                                             |
|           W    W    AA    RRRRR   N    N  II  N    N   GGGG   !!!           |
|           W    W   A  A   R    R  NN   N  II  NN   N  G    G  !!!           |
|           W    W  A    A  R    R  N N  N  II  N N  N  G       !!!           |
|           W WW W  AAAAAA  RRRRR   N  N N  II  N  N N  G  GGG   !            |
|           WW  WW  A    A  R   R   N   NN  II  N   NN  G    G                |
|           W    W  A    A  R    R  N    N  II  N    N   GGGG   !!!           |
|                                                                             |
|     Tetrahedron method does not include variations of the Fermi             |
|     occupations, so forces and stress will be inaccurate. We suggest        |
|     using a different smearing scheme ISMEAR = 1 or 2 for metals in         |
|     relaxations.                                                            |
|                                                                             |
 -----------------------------------------------------------------------------

    4ORBIT:  cpu time      0.0000: real time      0.0000



 total charge

# of ion       s       p       d       tot
------------------------------------------
    1        0.378   6.387   6.105  12.870
    2        0.372   6.377   6.102  12.851
    3        0.375   6.382   6.087  12.843
    4        0.381   6.389   6.090  12.860
    5        0.379   6.387   6.081  12.847
    6        0.374   6.381   6.089  12.844
    7        0.378   6.387   6.105  12.870
    8        0.372   6.377   6.102  12.851
    9        0.375   6.382   6.087  12.843
   10        0.821   0.817   8.063   9.701
   11        0.821   0.806   8.070   9.698
   12        0.807   0.816   8.069   9.692
--------------------------------------------------
tot          5.831  59.888  79.050 144.769



 magnetization (x)

# of ion       s       p       d       tot
------------------------------------------
    1       -0.010  -0.006  -2.100  -2.117
    2        0.000  -0.011   2.406   2.395
    3        0.007   0.003   2.271   2.281
    4       -0.015  -0.022  -2.162  -2.199
    5        0.013   0.021   2.247   2.281
    6       -0.000  -0.014   2.467   2.453
    7       -0.010  -0.006  -2.100  -2.117
    8        0.000  -0.011   2.406   2.395
    9        0.007   0.003   2.271   2.281
   10        0.007   0.010  -0.057  -0.040
   11       -0.009  -0.020   0.102   0.073
   12       -0.037  -0.094   0.362   0.232
--------------------------------------------------
tot         -0.046  -0.148   8.114   7.919
 
 BZINTS: Fermi energy:   11.144972;  156.000000 electrons
         Band energy:-0.144534E+04;  BLOECHL correction:   -0.024115

 total amount of memory used by VASP MPI-rank0   176528. kBytes
=======================================================================

   base      :      30000. kBytes
   nonl-proj :      94414. kBytes
   fftplans  :        888. kBytes
   grid      :       6813. kBytes
   one-center:        373. kBytes
   wavefun   :      44040. kBytes
 
  
  
 General timing and accounting informations for this job:
 ========================================================
  
                  Total CPU time used (sec):      262.245
                            User time (sec):      253.765
                          System time (sec):        8.481
                         Elapsed time (sec):      271.569
  
                   Maximum memory used (kb):      906204.
                   Average memory used (kb):          N/A
  
                          Minor page faults:       234949
                          Major page faults:          119
                 Voluntary context switches:         9790
