 vasp.6.4.3 19Mar24 (build Mar 26 2024 14:05:37) complex                        
  
 executed on             LinuxIFC date 2024.12.17  01:00:10
 running  128 mpi-ranks, on    1 nodes
 distrk:  each k-point on   32 cores,    4 groups
 distr:  one band on NCORE=   1 cores,   32 groups


--------------------------------------------------------------------------------------------------------


 INCAR:
   ALGO = All
   EDIFF = 1e-06
   EDIFFG = -0.01
   ENCUT = 520
   GGA = Pe
   IBRION = 2
   ISIF = 4
   ISMEAR = 1
   ISPIN = 2
   KPAR = 4
   LCHARG = True
   LORBIT = 11
   LREAL = False
   LWAVE = False
   MAGMOM = 1*-2.13 1*2.391 1*2.288 1*-2.173 1*2.265 1*2.453 1*-2.13 1*2.391 1*2.288 1*-0.038 1*0.066 1*0.233
   NELM = 200
   NSW = 100
   PREC = Accurate
   SIGMA = 0.2

 POTCAR:    PAW_PBE Fe_pv 02Aug2007               
 POTCAR:    PAW_PBE Pt 04Feb2005                  
 -----------------------------------------------------------------------------
|                                                                             |
|           W    W    AA    RRRRR   N    N  II  N    N   GGGG   !!!           |
|           W    W   A  A   R    R  NN   N  II  NN   N  G    G  !!!           |
|           W    W  A    A  R    R  N N  N  II  N N  N  G       !!!           |
|           W WW W  AAAAAA  RRRRR   N  N N  II  N  N N  G  GGG   !            |
|           WW  WW  A    A  R   R   N   NN  II  N   NN  G    G                |
|           W    W  A    A  R    R  N    N  II  N    N   GGGG   !!!           |
|                                                                             |
|     For optimal performance we recommend to set                             |
|       NCORE = 2 up to number-of-cores-per-socket                            |
|     NCORE specifies how many cores store one orbital (NPAR=cpu/NCORE).      |
|     This setting can greatly improve the performance of VASP for DFT.       |
|     The default, NCORE=1 might be grossly inefficient on modern             |
|     multi-core architectures or massively parallel machines. Do your        |
|     own testing! More info at https://www.vasp.at/wiki/index.php/NCORE      |
|     Unfortunately you need to use the default for GW and RPA                |
|     calculations (for HF NCORE is supported but not extensively tested      |
|     yet).                                                                   |
|                                                                             |
 -----------------------------------------------------------------------------

 POTCAR:    PAW_PBE Fe_pv 02Aug2007               
   SHA256 =  5d22e414b1f82158bf2c7ecb8b97b28fd0923e48cadc1c3bf74d524558f5dd32 Fe_pv/POTCAR          
   COPYR  = (c) Copyright 02Aug2007 Georg Kresse                                                    
   COPYR  = This file is part of the software VASP. Any use, copying, and all other rights are regul
   COPYR  = If you do not have a valid VASP license, you may not use, copy or distribute this file. 
   VRHFIN =Fe:  3pd7s1                                                                              
   LEXCH  = PE                                                                                      
   EATOM  =  2457.4239 eV,  180.6156 Ry                                                             
                                                                                                    
   TITEL  = PAW_PBE Fe_pv 02Aug2007                                                                 
   LULTRA =        F    use ultrasoft PP ?                                                          
   IUNSCR =        1    unscreen: 0-lin 1-nonlin 2-no                                               
   RPACOR =    1.750    partial core radius                                                         
   POMASS =   55.847; ZVAL   =   14.000    mass and valenz                                          
   RCORE  =    2.200    outmost cutoff radius                                                       
   RWIGS  =    2.200; RWIGS  =    1.164    wigner-seitz radius (au A)                               
   ENMAX  =  293.238; ENMIN  =  219.928 eV                                                          
   ICORE  =        3    local potential                                                             
   LCOR   =        T    correct aug charges                                                         
   LPAW   =        T    paw PP                                                                      
   EAUG   =  578.342                                                                                
   DEXC   =    0.000                                                                                
   RMAX   =    2.249    core radius for proj-oper                                                   
   RAUG   =    1.300    factor for augmentation sphere                                              
   RDEP   =    2.296    radius for radial grids                                                     
   RDEPT  =    1.766    core radius for aug-charge                                                  
                                                                                                    
   Atomic configuration                                                                             
    8 entries                                                                                       
     n  l   j            E        occ.                                                              
     1  0  0.50     -6993.8440   2.0000                                                             
     2  0  0.50      -814.6047   2.0000                                                             
     2  1  1.50      -693.3689   6.0000                                                             
     3  0  0.50       -89.4732   2.0000                                                             
     3  1  1.50       -55.6373   6.0000                                                             
     3  2  2.50        -3.8151   7.0000                                                             
     4  0  0.50        -4.2551   1.0000                                                             
     4  3  2.50        -1.3606   0.0000                                                             
   Description                                                                                      
     l       E           TYP  RCUT    TYP  RCUT                                                     
     1    -55.6372668     23  2.000                                                                 
     1     -5.4423304     23  2.000                                                                 
     2     -3.8151096     23  2.200                                                                 
     2     -5.1756922     23  2.200                                                                 
     0     -4.2550951     23  2.200                                                                 
     0     27.2116520     23  2.200                                                                 
     3     -1.3605826     23  2.200                                                                 
  local pseudopotential read in
  partial core-charges read in
  partial kinetic energy density read in
  atomic valenz-charges read in
  non local Contribution for L=           1  read in
    real space projection operators read in
  non local Contribution for L=           1  read in
    real space projection operators read in
  non local Contribution for L=           2  read in
    real space projection operators read in
  non local Contribution for L=           2  read in
    real space projection operators read in
  non local Contribution for L=           0  read in
    real space projection operators read in
  non local Contribution for L=           0  read in
    real space projection operators read in
    PAW grid and wavefunctions read in
 
   number of l-projection  operators is LMAX  =           6
   number of lm-projection operators is LMMAX =          18
 
 POTCAR:    PAW_PBE Pt 04Feb2005                  
   SHA256 =  3ed90460adef76debcff1cfb73ee1349b515b1a3db03439735b44de3a8db7dc8 Pt/POTCAR             
   COPYR  = (c) Copyright 04Feb2005 Georg Kresse                                                    
   COPYR  = This file is part of the software VASP. Any use, copying, and all other rights are regul
   COPYR  = If you do not have a valid VASP license, you may not use, copy or distribute this file. 
   VRHFIN =Pt: s1d9                                                                                 
   LEXCH  = PE                                                                                      
   EATOM  =   729.1176 eV,   53.5886 Ry                                                             
                                                                                                    
   TITEL  = PAW_PBE Pt 04Feb2005                                                                    
   LULTRA =        F    use ultrasoft PP ?                                                          
   IUNSCR =        1    unscreen: 0-lin 1-nonlin 2-no                                               
   RPACOR =    2.330    partial core radius                                                         
   POMASS =  195.080; ZVAL   =   10.000    mass and valenz                                          
   RCORE  =    2.600    outmost cutoff radius                                                       
   RWIGS  =    2.750; RWIGS  =    1.455    wigner-seitz radius (au A)                               
   ENMAX  =  230.283; ENMIN  =  172.712 eV                                                          
   ICORE  =        3    local potential                                                             
   LCOR   =        T    correct aug charges                                                         
   LPAW   =        T    paw PP                                                                      
   EAUG   =  358.966                                                                                
   DEXC   =    0.000                                                                                
   RMAX   =    2.658    core radius for proj-oper                                                   
   RAUG   =    1.300    factor for augmentation sphere                                              
   RDEP   =    2.761    radius for radial grids                                                     
   RDEPT  =    2.203    core radius for aug-charge                                                  
                                                                                                    
   Atomic configuration                                                                             
   16 entries                                                                                       
     n  l   j            E        occ.                                                              
     1  0  0.50    -78401.1885   2.0000                                                             
     2  0  0.50    -13770.7750   2.0000                                                             
     2  1  1.50    -11931.0468   6.0000                                                             
     3  0  0.50     -3234.7234   2.0000                                                             
     3  1  1.50     -2699.2216   6.0000                                                             
     3  2  2.50     -2119.5714  10.0000                                                             
     4  0  0.50      -695.1528   2.0000                                                             
     4  1  1.50      -519.6034   6.0000                                                             
     4  2  2.50      -306.6786  10.0000                                                             
     4  3  3.50       -70.1041  14.0000                                                             
     5  0  0.50      -101.7747   2.0000                                                             
     5  1  1.50       -55.9873   6.0000                                                             
     5  2  2.50        -6.1423   9.0000                                                             
     6  0  0.50        -5.6573   1.0000                                                             
     6  1  1.50        -6.8029   0.0000                                                             
     5  3  2.50        -1.3606   0.0000                                                             
   Description                                                                                      
     l       E           TYP  RCUT    TYP  RCUT                                                     
     2     -6.1423404     23  2.500                                                                 
     2     -7.5029230     23  2.500                                                                 
     0     -5.6573207     23  2.500                                                                 
     0      0.7416693     23  2.500                                                                 
     1     -2.7211652     23  2.600                                                                 
     1     20.4087390     23  2.600                                                                 
     3     -1.3605826     23  2.500                                                                 
  local pseudopotential read in
  partial core-charges read in
  partial kinetic energy density read in
  atomic valenz-charges read in
  non local Contribution for L=           2  read in
    real space projection operators read in
  non local Contribution for L=           2  read in
    real space projection operators read in
  non local Contribution for L=           0  read in
    real space projection operators read in
  non local Contribution for L=           0  read in
    real space projection operators read in
  non local Contribution for L=           1  read in
    real space projection operators read in
  non local Contribution for L=           1  read in
    real space projection operators read in
    PAW grid and wavefunctions read in
 
   number of l-projection  operators is LMAX  =           6
   number of lm-projection operators is LMMAX =          18
 
  PAW_PBE Fe_pv 02Aug2007               :
 energy of atom  1       EATOM=-2457.4239
 kinetic energy error for atom=    0.0062 (will be added to EATOM!!)
  PAW_PBE Pt 04Feb2005                  :
 energy of atom  2       EATOM= -729.1176
 kinetic energy error for atom=    0.0032 (will be added to EATOM!!)
 
 
 POSCAR: Fe9 Pt3
  positions in direct lattice
  velocities in cartesian coordinates


 exchange-correlation table for PE
   RHO(1)=    0.500       N(1)  =     2000
   RHO(2)=  100.500       N(2)  =     4000
 


--------------------------------------------------------------------------------------------------------


 ion  position               nearest neighbor table
   1  0.000  0.500  0.166-   4 2.53   4 2.53  11 2.54  11 2.54   7 2.55   7 2.55   7 2.55   7 2.55
                            10 2.57  10 2.57   5 2.57   5 2.57
   2  0.000  0.500  0.499-   8 2.55   8 2.55   8 2.55   8 2.55   5 2.55   5 2.55   6 2.56   6 2.56
                            12 2.57  12 2.57  11 2.58  11 2.58
   3  0.000  0.500  0.835-  10 2.54  10 2.54   9 2.55   9 2.55   9 2.55   9 2.55  12 2.57  12 2.57
                             4 2.58   4 2.58   6 2.58   6 2.58
   4  0.500  0.500  0.003-   1 2.53   7 2.53   7 2.53   1 2.53  10 2.55  10 2.55  10 2.55  10 2.55
                             9 2.58   3 2.58   9 2.58   3 2.58
   5  0.500  0.500  0.334-  11 2.55  11 2.55  11 2.55  11 2.55   8 2.55   2 2.55   2 2.55   8 2.55
                             1 2.57   7 2.57   1 2.57   7 2.57
   6  0.500  0.500  0.665-  12 2.55  12 2.55  12 2.55  12 2.55   8 2.56   2 2.56   2 2.56   8 2.56
                             9 2.58   3 2.58   9 2.58   3 2.58
   7  0.500  0.000  0.166-   4 2.53   4 2.53  11 2.54  11 2.54   1 2.55   1 2.55   1 2.55   1 2.55
                            10 2.57  10 2.57   5 2.57   5 2.57
   8  0.500  0.000  0.499-   2 2.55   2 2.55   2 2.55   2 2.55   5 2.55   5 2.55   6 2.56   6 2.56
                            12 2.57  12 2.57  11 2.58  11 2.58
   9  0.500  0.000  0.835-  10 2.54  10 2.54   3 2.55   3 2.55   3 2.55   3 2.55  12 2.57  12 2.57
                             4 2.58   4 2.58   6 2.58   6 2.58
  10  0.000  0.000  0.999-   3 2.54   9 2.54   3 2.54   9 2.54   4 2.55   4 2.55   4 2.55   4 2.55
                             1 2.57   7 2.57   7 2.57   1 2.57
  11  0.000  0.000  0.330-   1 2.54   7 2.54   1 2.54   7 2.54   5 2.55   5 2.55   5 2.55   5 2.55
                             2 2.58   2 2.58   8 2.58   8 2.58
  12  0.000  0.000  0.667-   6 2.55   6 2.55   6 2.55   6 2.55   3 2.57   9 2.57   9 2.57   3 2.57
                             2 2.57   8 2.57   8 2.57   2 2.57
 
  LATTYP: Found a simple tetragonal cell.
 ALAT       =     3.6068932874
 C/A-ratio  =     3.0261361500
  
  Lattice vectors:
  
 A1 = (   3.6068932874,   0.0000000000,   0.0000000000)
 A2 = (   0.0000000000,   3.6068932874,   0.0000000000)
 A3 = (   0.0000000000,   0.0000000000,  10.9149501662)


Analysis of symmetry for initial positions (statically):
=====================================================================
 Subroutine PRICEL returns:
 Original cell was already a primitive cell.
 

 Routine SETGRP: Setting up the symmetry group for a 
 simple tetragonal supercell.


 Subroutine GETGRP returns: Found  8 space group operations
 (whereof  8 operations were pure point group operations)
 out of a pool of 16 trial point group operations.


The static configuration has the point symmetry C_4v.


Analysis of symmetry for dynamics (positions and initial velocities):
=====================================================================
 Subroutine PRICEL returns:
 Original cell was already a primitive cell.
 

 Routine SETGRP: Setting up the symmetry group for a 
 simple tetragonal supercell.


 Subroutine GETGRP returns: Found  8 space group operations
 (whereof  8 operations were pure point group operations)
 out of a pool of 16 trial point group operations.


The dynamic configuration has the point symmetry C_4v.


Analysis of structural, dynamic, and magnetic symmetry:
=====================================================================
 Subroutine PRICEL returns:
 Original cell was already a primitive cell.
 

 Routine SETGRP: Setting up the symmetry group for a 
 simple tetragonal supercell.


 Subroutine GETGRP returns: Found  8 space group operations
 (whereof  8 operations were pure point group operations)
 out of a pool of 16 trial point group operations.


The overall configuration has the point symmetry C_4v.


 Subroutine INISYM returns: Found  8 space group operations
 (whereof  8 operations are pure point group operations),
 and found     1 'primitive' translations


----------------------------------------------------------------------------------------

                                     Primitive cell                                     

  volume of cell :     142.0000

  direct lattice vectors                    reciprocal lattice vectors
     3.606893287  0.000000000  0.000000000     0.277246905  0.000000000  0.000000000
     0.000000000  3.606893287  0.000000000     0.000000000  0.277246905  0.000000000
     0.000000000  0.000000000 10.914950166     0.000000000  0.000000000  0.091617459

  length of vectors
     3.606893287  3.606893287 10.914950166     0.277246905  0.277246905  0.091617459

  position of ions in fractional coordinates (direct lattice)
     0.000000000  0.500000000  0.166469741
     0.000000000  0.500000000  0.499263223
     0.000000000  0.500000000  0.834695678
     0.500000000  0.500000000  0.003471204
     0.500000000  0.500000000  0.333927702
     0.500000000  0.500000000  0.665144097
     0.500000000  0.000000000  0.166469741
     0.500000000  0.000000000  0.499263223
     0.500000000  0.000000000  0.834695678
     0.000000000  0.000000000  0.999125369
     0.000000000  0.000000000  0.330371294
     0.000000000  0.000000000  0.667103049

  ion indices of the primitive-cell ions
   primitive index   ion index
                 1           1
                 2           2
                 3           3
                 4           4
                 5           5
                 6           6
                 7           7
                 8           8
                 9           9
                10          10
                11          11
                12          12

----------------------------------------------------------------------------------------

 
 
 KPOINTS: pymatgen with grid density = 8800 / numb

Automatic generation of k-mesh.
 Grid dimensions read from file:
 generate k-points for:   13   13    4

 Generating k-lattice:

  Cartesian coordinates                     Fractional coordinates (reciprocal lattice)
     0.021326685  0.000000000  0.000000000     0.076923077  0.000000000  0.000000000
     0.000000000  0.021326685  0.000000000     0.000000000  0.076923077  0.000000000
     0.000000000  0.000000000  0.022904365     0.000000000  0.000000000  0.250000000

  Length of vectors
     0.021326685  0.021326685  0.022904365

  Shift w.r.t. Gamma in fractional coordinates (k-lattice)
     0.000000000  0.000000000  0.000000000

 
 Subroutine IBZKPT returns following result:
 ===========================================
 
 Found     84 irreducible k-points:
 
 Following reciprocal coordinates:
            Coordinates               Weight
  0.000000  0.000000  0.000000      1.000000
  0.076923  0.000000  0.000000      4.000000
  0.153846  0.000000  0.000000      4.000000
  0.230769  0.000000  0.000000      4.000000
  0.307692  0.000000  0.000000      4.000000
  0.384615  0.000000  0.000000      4.000000
  0.461538  0.000000  0.000000      4.000000
  0.076923  0.076923  0.000000      4.000000
  0.153846  0.076923  0.000000      8.000000
  0.230769  0.076923  0.000000      8.000000
  0.307692  0.076923  0.000000      8.000000
  0.384615  0.076923  0.000000      8.000000
  0.461538  0.076923  0.000000      8.000000
  0.153846  0.153846  0.000000      4.000000
  0.230769  0.153846  0.000000      8.000000
  0.307692  0.153846  0.000000      8.000000
  0.384615  0.153846  0.000000      8.000000
  0.461538  0.153846  0.000000      8.000000
  0.230769  0.230769  0.000000      4.000000
  0.307692  0.230769  0.000000      8.000000
  0.384615  0.230769  0.000000      8.000000
  0.461538  0.230769  0.000000      8.000000
  0.307692  0.307692  0.000000      4.000000
  0.384615  0.307692  0.000000      8.000000
  0.461538  0.307692  0.000000      8.000000
  0.384615  0.384615  0.000000      4.000000
  0.461538  0.384615  0.000000      8.000000
  0.461538  0.461538  0.000000      4.000000
  0.000000  0.000000  0.250000      2.000000
  0.076923  0.000000  0.250000      8.000000
  0.153846  0.000000  0.250000      8.000000
  0.230769  0.000000  0.250000      8.000000
  0.307692  0.000000  0.250000      8.000000
  0.384615  0.000000  0.250000      8.000000
  0.461538  0.000000  0.250000      8.000000
  0.076923  0.076923  0.250000      8.000000
  0.153846  0.076923  0.250000     16.000000
  0.230769  0.076923  0.250000     16.000000
  0.307692  0.076923  0.250000     16.000000
  0.384615  0.076923  0.250000     16.000000
  0.461538  0.076923  0.250000     16.000000
  0.153846  0.153846  0.250000      8.000000
  0.230769  0.153846  0.250000     16.000000
  0.307692  0.153846  0.250000     16.000000
  0.384615  0.153846  0.250000     16.000000
  0.461538  0.153846  0.250000     16.000000
  0.230769  0.230769  0.250000      8.000000
  0.307692  0.230769  0.250000     16.000000
  0.384615  0.230769  0.250000     16.000000
  0.461538  0.230769  0.250000     16.000000
  0.307692  0.307692  0.250000      8.000000
  0.384615  0.307692  0.250000     16.000000
  0.461538  0.307692  0.250000     16.000000
  0.384615  0.384615  0.250000      8.000000
  0.461538  0.384615  0.250000     16.000000
  0.461538  0.461538  0.250000      8.000000
  0.000000  0.000000  0.500000      1.000000
  0.076923  0.000000  0.500000      4.000000
  0.153846  0.000000  0.500000      4.000000
  0.230769  0.000000  0.500000      4.000000
  0.307692  0.000000  0.500000      4.000000
  0.384615  0.000000  0.500000      4.000000
  0.461538  0.000000  0.500000      4.000000
  0.076923  0.076923  0.500000      4.000000
  0.153846  0.076923  0.500000      8.000000
  0.230769  0.076923  0.500000      8.000000
  0.307692  0.076923  0.500000      8.000000
  0.384615  0.076923  0.500000      8.000000
  0.461538  0.076923  0.500000      8.000000
  0.153846  0.153846  0.500000      4.000000
  0.230769  0.153846  0.500000      8.000000
  0.307692  0.153846  0.500000      8.000000
  0.384615  0.153846  0.500000      8.000000
  0.461538  0.153846  0.500000      8.000000
  0.230769  0.230769  0.500000      4.000000
  0.307692  0.230769  0.500000      8.000000
  0.384615  0.230769  0.500000      8.000000
  0.461538  0.230769  0.500000      8.000000
  0.307692  0.307692  0.500000      4.000000
  0.384615  0.307692  0.500000      8.000000
  0.461538  0.307692  0.500000      8.000000
  0.384615  0.384615  0.500000      4.000000
  0.461538  0.384615  0.500000      8.000000
  0.461538  0.461538  0.500000      4.000000
 
 Following cartesian coordinates:
            Coordinates               Weight
  0.000000  0.000000  0.000000      1.000000
  0.021327  0.000000  0.000000      4.000000
  0.042653  0.000000  0.000000      4.000000
  0.063980  0.000000  0.000000      4.000000
  0.085307  0.000000  0.000000      4.000000
  0.106633  0.000000  0.000000      4.000000
  0.127960  0.000000  0.000000      4.000000
  0.021327  0.021327  0.000000      4.000000
  0.042653  0.021327  0.000000      8.000000
  0.063980  0.021327  0.000000      8.000000
  0.085307  0.021327  0.000000      8.000000
  0.106633  0.021327  0.000000      8.000000
  0.127960  0.021327  0.000000      8.000000
  0.042653  0.042653  0.000000      4.000000
  0.063980  0.042653  0.000000      8.000000
  0.085307  0.042653  0.000000      8.000000
  0.106633  0.042653  0.000000      8.000000
  0.127960  0.042653  0.000000      8.000000
  0.063980  0.063980  0.000000      4.000000
  0.085307  0.063980  0.000000      8.000000
  0.106633  0.063980  0.000000      8.000000
  0.127960  0.063980  0.000000      8.000000
  0.085307  0.085307  0.000000      4.000000
  0.106633  0.085307  0.000000      8.000000
  0.127960  0.085307  0.000000      8.000000
  0.106633  0.106633  0.000000      4.000000
  0.127960  0.106633  0.000000      8.000000
  0.127960  0.127960  0.000000      4.000000
  0.000000  0.000000  0.022904      2.000000
  0.021327  0.000000  0.022904      8.000000
  0.042653  0.000000  0.022904      8.000000
  0.063980  0.000000  0.022904      8.000000
  0.085307  0.000000  0.022904      8.000000
  0.106633  0.000000  0.022904      8.000000
  0.127960  0.000000  0.022904      8.000000
  0.021327  0.021327  0.022904      8.000000
  0.042653  0.021327  0.022904     16.000000
  0.063980  0.021327  0.022904     16.000000
  0.085307  0.021327  0.022904     16.000000
  0.106633  0.021327  0.022904     16.000000
  0.127960  0.021327  0.022904     16.000000
  0.042653  0.042653  0.022904      8.000000
  0.063980  0.042653  0.022904     16.000000
  0.085307  0.042653  0.022904     16.000000
  0.106633  0.042653  0.022904     16.000000
  0.127960  0.042653  0.022904     16.000000
  0.063980  0.063980  0.022904      8.000000
  0.085307  0.063980  0.022904     16.000000
  0.106633  0.063980  0.022904     16.000000
  0.127960  0.063980  0.022904     16.000000
  0.085307  0.085307  0.022904      8.000000
  0.106633  0.085307  0.022904     16.000000
  0.127960  0.085307  0.022904     16.000000
  0.106633  0.106633  0.022904      8.000000
  0.127960  0.106633  0.022904     16.000000
  0.127960  0.127960  0.022904      8.000000
  0.000000  0.000000  0.045809      1.000000
  0.021327  0.000000  0.045809      4.000000
  0.042653  0.000000  0.045809      4.000000
  0.063980  0.000000  0.045809      4.000000
  0.085307  0.000000  0.045809      4.000000
  0.106633  0.000000  0.045809      4.000000
  0.127960  0.000000  0.045809      4.000000
  0.021327  0.021327  0.045809      4.000000
  0.042653  0.021327  0.045809      8.000000
  0.063980  0.021327  0.045809      8.000000
  0.085307  0.021327  0.045809      8.000000
  0.106633  0.021327  0.045809      8.000000
  0.127960  0.021327  0.045809      8.000000
  0.042653  0.042653  0.045809      4.000000
  0.063980  0.042653  0.045809      8.000000
  0.085307  0.042653  0.045809      8.000000
  0.106633  0.042653  0.045809      8.000000
  0.127960  0.042653  0.045809      8.000000
  0.063980  0.063980  0.045809      4.000000
  0.085307  0.063980  0.045809      8.000000
  0.106633  0.063980  0.045809      8.000000
  0.127960  0.063980  0.045809      8.000000
  0.085307  0.085307  0.045809      4.000000
  0.106633  0.085307  0.045809      8.000000
  0.127960  0.085307  0.045809      8.000000
  0.106633  0.106633  0.045809      4.000000
  0.127960  0.106633  0.045809      8.000000
  0.127960  0.127960  0.045809      4.000000
 


--------------------------------------------------------------------------------------------------------




 Dimension of arrays:
   k-points           NKPTS =     84   k-points in BZ     NKDIM =     84   number of bands    NBANDS=    128
   number of dos      NEDOS =    301   number of ions     NIONS =     12
   non local maximal  LDIM  =      6   non local SUM 2l+1 LMDIM =     18
   total plane-waves  NPLWV =  65856
   max r-space proj   IRMAX =      1   max aug-charges    IRDMAX=  28286
   dimension x,y,z NGX =    28 NGY =   28 NGZ =   84
   dimension x,y,z NGXF=    56 NGYF=   56 NGZF=  168
   support grid    NGXF=    56 NGYF=   56 NGZF=  168
   ions per type =               9   3
   NGX,Y,Z   is equivalent  to a cutoff of  12.91, 12.91, 12.79 a.u.
   NGXF,Y,Z  is equivalent  to a cutoff of  25.81, 25.81, 25.59 a.u.

 SYSTEM =  unknown system                          
 POSCAR =  Fe9 Pt3                                 

 Startparameter for this run:
   NWRITE =      2    write-flag & timer
   PREC   = accura    normal or accurate (medium, high low for compatibility)
   ISTART =      0    job   : 0-new  1-cont  2-samecut
   ICHARG =      2    charge: 1-file 2-atom 10-const
   ISPIN  =      2    spin polarized calculation?
   LNONCOLLINEAR =      F non collinear calculations
   LSORBIT =      F    spin-orbit coupling
   INIWAV =      1    electr: 0-lowe 1-rand  2-diag
   LASPH  =      F    aspherical Exc in radial PAW
 Electronic Relaxation 1
   ENCUT  =  520.0 eV  38.22 Ry    6.18 a.u.   6.71  6.71 20.29*2*pi/ulx,y,z
   ENINI  =  520.0     initial cutoff
   ENAUG  =  578.3 eV  augmentation charge cutoff
   NELM   =    200;   NELMIN=  2; NELMDL=  0     # of ELM steps 
   EDIFF  = 0.1E-05   stopping-criterion for ELM
   LREAL  =      F    real-space projection
   NLSPLINE    = F    spline interpolate recip. space projectors
   LCOMPAT=      F    compatible to vasp.4.4
   GGA_COMPAT  = T    GGA compatible to vasp.4.4-vasp.4.6
   LMAXPAW     = -100 max onsite density
   LMAXMIX     =    2 max onsite mixed and CHGCAR
   VOSKOWN=      0    Vosko Wilk Nusair interpolation
   ROPT   =    0.00000   0.00000
 Ionic relaxation
   EDIFFG = -.1E-01   stopping-criterion for IOM
   NSW    =    100    number of steps for IOM
   NBLOCK =      1;   KBLOCK =    100    inner block; outer block 
   IBRION =      2    ionic relax: 0-MD 1-quasi-New 2-CG
   NFREE  =      1    steps in history (QN), initial steepest desc. (CG)
   ISIF   =      4    stress and relaxation
   IWAVPR =     11    prediction:  0-non 1-charg 2-wave 3-comb
   ISYM   =      2    0-nonsym 1-usesym 2-fastsym
   LCORR  =      T    Harris-Foulkes like correction to forces

   POTIM  = 0.5000    time-step for ionic-motion
   TEIN   =    0.0    initial temperature
   TEBEG  =    0.0;   TEEND  =   0.0 temperature during run
   SMASS  =  -3.00    Nose mass-parameter (am)
   estimated Nose-frequenzy (Omega)   =  0.10E-29 period in steps = 0.13E+47 mass=  -0.297E-27a.u.
   SCALEE = 1.0000    scale energy and forces
   NPACO  =    256;   APACO  = 10.0  distance and # of slots for P.C.
   PSTRESS=    0.0 pullay stress

  Mass of Ions in am
   POMASS =  55.85195.08
  Ionic Valenz
   ZVAL   =  14.00 10.00
  Atomic Wigner-Seitz radii
   RWIGS  =  -1.00 -1.00
  virtual crystal weights 
   VCA    =   1.00  1.00
   NELECT =     156.0000    total number of electrons
   NUPDOWN=      -1.0000    fix difference up-down

 DOS related values:
   EMIN   =  10.00;   EMAX   =-10.00  energy-range for DOS
   EFERMI =   0.00;   METHOD = LEGACY      
   ISMEAR =     1;   SIGMA  =   0.20  broadening in eV -4-tet -1-fermi 0-gaus

 Electronic relaxation 2 (details)
   IALGO  =     58    algorithm
   LDIAG  =      T    sub-space diagonalisation (order eigenvalues)
   LSUBROT=      F    optimize rotation matrix (better conditioning)
   TURBO    =      0    0=normal 1=particle mesh
   IRESTART =      0    0=no restart 2=restart with 2 vectors
   NREBOOT  =      0    no. of reboots
   NMIN     =      0    reboot dimension
   EREF     =   0.00    reference energy to select bands
   IMIX   =      4    mixing-type and parameters
     AMIX     =   0.40;   BMIX     =  1.00
     AMIX_MAG =   1.60;   BMIX_MAG =  1.00
     AMIN     =   0.10
     WC   =   100.;   INIMIX=   1;  MIXPRE=   1;  MAXMIX= -45

 Intra band minimization:
   WEIMIN = 0.0010     energy-eigenvalue tresh-hold
   EBREAK =  0.20E-08  absolut break condition
   DEPER  =   0.30     relativ break condition  

   TIME   =   0.40     timestep for ELM

  volume/ion in A,a.u.               =      11.83        79.86
  Fermi-wavevector in a.u.,A,eV,Ry     =   1.689223  3.192168 38.823863  2.853473
  Thomas-Fermi vector in A             =   2.771388
 
 Write flags
   LWAVE        =      F    write WAVECAR
   LDOWNSAMPLE  =      F    k-point downsampling of WAVECAR
   LCHARG       =      T    write CHGCAR
   LVTOT        =      F    write LOCPOT, total local potential
   LVHAR        =      F    write LOCPOT, Hartree potential only
   WRT_POTENTIAL= false  ! write potential to hdf5 file
   LELF         =      F    write electronic localiz. function (ELF)
   LORBIT       =     11    0 simple, 1 ext, 2 COOP (PROOUT), +10 PAW based schemes


 Dipole corrections
   LMONO      =      F    monopole corrections only (constant potential shift)
   LDIPOL     =      F    correct potential (dipole corrections)
   IDIPOL     =      0    1-x, 2-y, 3-z, 4-all directions 
   EPSILON    =  1.0000000 bulk dielectric constant
   LVACPOTAV  =      F  vacuum potentials using an averaging scheme for the charge density
   VACPOTFLAT =  0.1000000 required flatness to determine vacuum potential
 Exchange correlation treatment:
   GGA     = PE    functional components
   XC_C    = 1    coefficients multiplying the functional components
   LIBXC   =     F    Libxc                    
   VOSKOWN =     0    Vosko Wilk Nusair interpolation
   LHFCALC =     F    Hartree Fock is set to
   LHFONE  =     F    Hartree Fock one center treatment
   AEXX    =    0.0000 exact exchange contribution

 Parameters of functionals:
   PE:
     No parameter
 
 Van der Waals corrections
   IVDW    =     0    specifies the selected vdW correction

 Linear response parameters
   LEPSILON=     F    determine dielectric tensor
   LRPA    =     F    only Hartree local field effects (RPA)
   LNABLA  =     F    use nabla operator in PAW spheres
   LVEL    =     F    velocity operator in full k-point grid
   CSHIFT  =0.1000    complex shift for real part using Kramers Kronig
   OMEGAMAX=  -1.0    maximum frequency
   DEG_THRESHOLD= 0.2000000E-02 threshold for treating states as degnerate
   RTIME   =   -0.100 relaxation time in fs
  (WPLASMAI=    0.000 imaginary part of plasma frequency in eV, 0.658/RTIME)
   DFIELD  = 0.0000000 0.0000000 0.0000000 field for delta impulse in time
 
  Optional k-point grid parameters
   LKPOINTS_OPT  =     F    use optional k-point grid
   KPOINTS_OPT_MODE=     1    mode for optional k-point grid
 
 Orbital magnetization related:
   ORBITALMAG=     F  switch on orbital magnetization
   LCHIMAG   =     F  perturbation theory with respect to B field
   DQ        =  0.001000  dq finite difference perturbation B field
   LLRAUG    =     F  two centre corrections for induced B field
   LBONE     =     F  B-component reconstruction in AE one-centre
   LVGVCALC  =     T  calculate vGv susceptibility
   LVGVAPPL  =     F  apply vGv susceptibility instead of pGv for G=0

 Random number generation:
   RANDOM_GENERATOR = DEFAULT
   PCG_SEED         = not used


--------------------------------------------------------------------------------------------------------


 conjugate gradient relaxation of ions
 charge density and potential will be updated during run
 spin polarized calculation
 Conjugate gradient for all bands (Freysoldt, et al. PRB 79, 241103 (2009))
 preconditioned conjugated gradient                                        
 perform sub-space diagonalisation
    before iterative eigenvector-optimisation
 modified Broyden-mixing scheme, WC =      100.0
 initial mixing is a Kerker type mixing with AMIX =  0.4000 and BMIX =      1.0000
 Hartree-type preconditioning will be used
 using additional bands           50
 reciprocal scheme for non local part
 use partial core corrections
 no Harris-corrections to forces 
 use gradient corrections 
 use of overlap-Matrix (Vanderbilt PP)
 Methfessel and Paxton  Order N= 1 SIGMA  =   0.20


--------------------------------------------------------------------------------------------------------


  energy-cutoff  :      520.00
  volume of cell :      142.00
      direct lattice vectors                 reciprocal lattice vectors
     3.606893287  0.000000000  0.000000000     0.277246905  0.000000000  0.000000000
     0.000000000  3.606893287  0.000000000     0.000000000  0.277246905  0.000000000
     0.000000000  0.000000000 10.914950166     0.000000000  0.000000000  0.091617459

  length of vectors
     3.606893287  3.606893287 10.914950166     0.277246905  0.277246905  0.091617459


 
 k-points in units of 2pi/SCALE and weight: pymatgen with grid density = 8800 / numb
   0.00000000  0.00000000  0.00000000       0.001
   0.02132668  0.00000000  0.00000000       0.006
   0.04265337  0.00000000  0.00000000       0.006
   0.06398005  0.00000000  0.00000000       0.006
   0.08530674  0.00000000  0.00000000       0.006
   0.10663342  0.00000000  0.00000000       0.006
   0.12796011  0.00000000  0.00000000       0.006
   0.02132668  0.02132668  0.00000000       0.006
   0.04265337  0.02132668  0.00000000       0.012
   0.06398005  0.02132668  0.00000000       0.012
   0.08530674  0.02132668  0.00000000       0.012
   0.10663342  0.02132668  0.00000000       0.012
   0.12796011  0.02132668  0.00000000       0.012
   0.04265337  0.04265337  0.00000000       0.006
   0.06398005  0.04265337  0.00000000       0.012
   0.08530674  0.04265337  0.00000000       0.012
   0.10663342  0.04265337  0.00000000       0.012
   0.12796011  0.04265337  0.00000000       0.012
   0.06398005  0.06398005  0.00000000       0.006
   0.08530674  0.06398005  0.00000000       0.012
   0.10663342  0.06398005  0.00000000       0.012
   0.12796011  0.06398005  0.00000000       0.012
   0.08530674  0.08530674  0.00000000       0.006
   0.10663342  0.08530674  0.00000000       0.012
   0.12796011  0.08530674  0.00000000       0.012
   0.10663342  0.10663342  0.00000000       0.006
   0.12796011  0.10663342  0.00000000       0.012
   0.12796011  0.12796011  0.00000000       0.006
   0.00000000  0.00000000  0.02290436       0.003
   0.02132668  0.00000000  0.02290436       0.012
   0.04265337  0.00000000  0.02290436       0.012
   0.06398005  0.00000000  0.02290436       0.012
   0.08530674  0.00000000  0.02290436       0.012
   0.10663342  0.00000000  0.02290436       0.012
   0.12796011  0.00000000  0.02290436       0.012
   0.02132668  0.02132668  0.02290436       0.012
   0.04265337  0.02132668  0.02290436       0.024
   0.06398005  0.02132668  0.02290436       0.024
   0.08530674  0.02132668  0.02290436       0.024
   0.10663342  0.02132668  0.02290436       0.024
   0.12796011  0.02132668  0.02290436       0.024
   0.04265337  0.04265337  0.02290436       0.012
   0.06398005  0.04265337  0.02290436       0.024
   0.08530674  0.04265337  0.02290436       0.024
   0.10663342  0.04265337  0.02290436       0.024
   0.12796011  0.04265337  0.02290436       0.024
   0.06398005  0.06398005  0.02290436       0.012
   0.08530674  0.06398005  0.02290436       0.024
   0.10663342  0.06398005  0.02290436       0.024
   0.12796011  0.06398005  0.02290436       0.024
   0.08530674  0.08530674  0.02290436       0.012
   0.10663342  0.08530674  0.02290436       0.024
   0.12796011  0.08530674  0.02290436       0.024
   0.10663342  0.10663342  0.02290436       0.012
   0.12796011  0.10663342  0.02290436       0.024
   0.12796011  0.12796011  0.02290436       0.012
   0.00000000  0.00000000  0.04580873       0.001
   0.02132668  0.00000000  0.04580873       0.006
   0.04265337  0.00000000  0.04580873       0.006
   0.06398005  0.00000000  0.04580873       0.006
   0.08530674  0.00000000  0.04580873       0.006
   0.10663342  0.00000000  0.04580873       0.006
   0.12796011  0.00000000  0.04580873       0.006
   0.02132668  0.02132668  0.04580873       0.006
   0.04265337  0.02132668  0.04580873       0.012
   0.06398005  0.02132668  0.04580873       0.012
   0.08530674  0.02132668  0.04580873       0.012
   0.10663342  0.02132668  0.04580873       0.012
   0.12796011  0.02132668  0.04580873       0.012
   0.04265337  0.04265337  0.04580873       0.006
   0.06398005  0.04265337  0.04580873       0.012
   0.08530674  0.04265337  0.04580873       0.012
   0.10663342  0.04265337  0.04580873       0.012
   0.12796011  0.04265337  0.04580873       0.012
   0.06398005  0.06398005  0.04580873       0.006
   0.08530674  0.06398005  0.04580873       0.012
   0.10663342  0.06398005  0.04580873       0.012
   0.12796011  0.06398005  0.04580873       0.012
   0.08530674  0.08530674  0.04580873       0.006
   0.10663342  0.08530674  0.04580873       0.012
   0.12796011  0.08530674  0.04580873       0.012
   0.10663342  0.10663342  0.04580873       0.006
   0.12796011  0.10663342  0.04580873       0.012
   0.12796011  0.12796011  0.04580873       0.006
 
 k-points in reciprocal lattice and weights: pymatgen with grid density = 8800 / numb
   0.00000000  0.00000000  0.00000000       0.001
   0.07692308  0.00000000  0.00000000       0.006
   0.15384615  0.00000000  0.00000000       0.006
   0.23076923  0.00000000  0.00000000       0.006
   0.30769231  0.00000000  0.00000000       0.006
   0.38461538  0.00000000  0.00000000       0.006
   0.46153846  0.00000000  0.00000000       0.006
   0.07692308  0.07692308  0.00000000       0.006
   0.15384615  0.07692308  0.00000000       0.012
   0.23076923  0.07692308  0.00000000       0.012
   0.30769231  0.07692308  0.00000000       0.012
   0.38461538  0.07692308  0.00000000       0.012
   0.46153846  0.07692308  0.00000000       0.012
   0.15384615  0.15384615  0.00000000       0.006
   0.23076923  0.15384615  0.00000000       0.012
   0.30769231  0.15384615  0.00000000       0.012
   0.38461538  0.15384615  0.00000000       0.012
   0.46153846  0.15384615  0.00000000       0.012
   0.23076923  0.23076923  0.00000000       0.006
   0.30769231  0.23076923  0.00000000       0.012
   0.38461538  0.23076923  0.00000000       0.012
   0.46153846  0.23076923  0.00000000       0.012
   0.30769231  0.30769231  0.00000000       0.006
   0.38461538  0.30769231  0.00000000       0.012
   0.46153846  0.30769231  0.00000000       0.012
   0.38461538  0.38461538  0.00000000       0.006
   0.46153846  0.38461538  0.00000000       0.012
   0.46153846  0.46153846  0.00000000       0.006
   0.00000000  0.00000000  0.25000000       0.003
   0.07692308  0.00000000  0.25000000       0.012
   0.15384615  0.00000000  0.25000000       0.012
   0.23076923  0.00000000  0.25000000       0.012
   0.30769231  0.00000000  0.25000000       0.012
   0.38461538  0.00000000  0.25000000       0.012
   0.46153846  0.00000000  0.25000000       0.012
   0.07692308  0.07692308  0.25000000       0.012
   0.15384615  0.07692308  0.25000000       0.024
   0.23076923  0.07692308  0.25000000       0.024
   0.30769231  0.07692308  0.25000000       0.024
   0.38461538  0.07692308  0.25000000       0.024
   0.46153846  0.07692308  0.25000000       0.024
   0.15384615  0.15384615  0.25000000       0.012
   0.23076923  0.15384615  0.25000000       0.024
   0.30769231  0.15384615  0.25000000       0.024
   0.38461538  0.15384615  0.25000000       0.024
   0.46153846  0.15384615  0.25000000       0.024
   0.23076923  0.23076923  0.25000000       0.012
   0.30769231  0.23076923  0.25000000       0.024
   0.38461538  0.23076923  0.25000000       0.024
   0.46153846  0.23076923  0.25000000       0.024
   0.30769231  0.30769231  0.25000000       0.012
   0.38461538  0.30769231  0.25000000       0.024
   0.46153846  0.30769231  0.25000000       0.024
   0.38461538  0.38461538  0.25000000       0.012
   0.46153846  0.38461538  0.25000000       0.024
   0.46153846  0.46153846  0.25000000       0.012
   0.00000000  0.00000000  0.50000000       0.001
   0.07692308  0.00000000  0.50000000       0.006
   0.15384615  0.00000000  0.50000000       0.006
   0.23076923  0.00000000  0.50000000       0.006
   0.30769231  0.00000000  0.50000000       0.006
   0.38461538  0.00000000  0.50000000       0.006
   0.46153846  0.00000000  0.50000000       0.006
   0.07692308  0.07692308  0.50000000       0.006
   0.15384615  0.07692308  0.50000000       0.012
   0.23076923  0.07692308  0.50000000       0.012
   0.30769231  0.07692308  0.50000000       0.012
   0.38461538  0.07692308  0.50000000       0.012
   0.46153846  0.07692308  0.50000000       0.012
   0.15384615  0.15384615  0.50000000       0.006
   0.23076923  0.15384615  0.50000000       0.012
   0.30769231  0.15384615  0.50000000       0.012
   0.38461538  0.15384615  0.50000000       0.012
   0.46153846  0.15384615  0.50000000       0.012
   0.23076923  0.23076923  0.50000000       0.006
   0.30769231  0.23076923  0.50000000       0.012
   0.38461538  0.23076923  0.50000000       0.012
   0.46153846  0.23076923  0.50000000       0.012
   0.30769231  0.30769231  0.50000000       0.006
   0.38461538  0.30769231  0.50000000       0.012
   0.46153846  0.30769231  0.50000000       0.012
   0.38461538  0.38461538  0.50000000       0.006
   0.46153846  0.38461538  0.50000000       0.012
   0.46153846  0.46153846  0.50000000       0.006
 
 position of ions in fractional coordinates (direct lattice) 
   0.00000000  0.50000000  0.16646974
   0.00000000  0.50000000  0.49926322
   0.00000000  0.50000000  0.83469568
   0.50000000  0.50000000  0.00347120
   0.50000000  0.50000000  0.33392770
   0.50000000  0.50000000  0.66514410
   0.50000000  0.00000000  0.16646974
   0.50000000  0.00000000  0.49926322
   0.50000000  0.00000000  0.83469568
   0.00000000  0.00000000  0.99912537
   0.00000000  0.00000000  0.33037129
   0.00000000  0.00000000  0.66710305
 
 position of ions in cartesian coordinates  (Angst):
   0.00000000  1.80344664  1.81700893
   0.00000000  1.80344664  5.44943320
   0.00000000  1.80344664  9.11066173
   1.80344664  1.80344664  0.03788802
   1.80344664  1.80344664  3.64480423
   1.80344664  1.80344664  7.26001467
   1.80344664  0.00000000  1.81700893
   1.80344664  0.00000000  5.44943320
   1.80344664  0.00000000  9.11066173
   0.00000000  0.00000000 10.90540361
   0.00000000  0.00000000  3.60598622
   0.00000000  0.00000000  7.28139654
 


--------------------------------------------------------------------------------------------------------


 k-point     1 :   0.0000 0.0000 0.0000  plane waves:    3865
 k-point     2 :   0.0769 0.0000 0.0000  plane waves:    3851
 k-point     3 :   0.1538 0.0000 0.0000  plane waves:    3837
 k-point     4 :   0.2308 0.0000 0.0000  plane waves:    3845
 k-point     5 :   0.3077 0.0000 0.0000  plane waves:    3830
 k-point     6 :   0.3846 0.0000 0.0000  plane waves:    3812
 k-point     7 :   0.4615 0.0000 0.0000  plane waves:    3808
 k-point     8 :   0.0769 0.0769 0.0000  plane waves:    3839
 k-point     9 :   0.1538 0.0769 0.0000  plane waves:    3842
 k-point    10 :   0.2308 0.0769 0.0000  plane waves:    3833
 k-point    11 :   0.3077 0.0769 0.0000  plane waves:    3832
 k-point    12 :   0.3846 0.0769 0.0000  plane waves:    3825
 k-point    13 :   0.4615 0.0769 0.0000  plane waves:    3808
 k-point    14 :   0.1538 0.1538 0.0000  plane waves:    3827
 k-point    15 :   0.2308 0.1538 0.0000  plane waves:    3831
 k-point    16 :   0.3077 0.1538 0.0000  plane waves:    3811
 k-point    17 :   0.3846 0.1538 0.0000  plane waves:    3809
 k-point    18 :   0.4615 0.1538 0.0000  plane waves:    3805
 k-point    19 :   0.2308 0.2308 0.0000  plane waves:    3821
 k-point    20 :   0.3077 0.2308 0.0000  plane waves:    3819
 k-point    21 :   0.3846 0.2308 0.0000  plane waves:    3821
 k-point    22 :   0.4615 0.2308 0.0000  plane waves:    3814
 k-point    23 :   0.3077 0.3077 0.0000  plane waves:    3796
 k-point    24 :   0.3846 0.3077 0.0000  plane waves:    3803
 k-point    25 :   0.4615 0.3077 0.0000  plane waves:    3829
 k-point    26 :   0.3846 0.3846 0.0000  plane waves:    3830
 k-point    27 :   0.4615 0.3846 0.0000  plane waves:    3851
 k-point    28 :   0.4615 0.4615 0.0000  plane waves:    3836
 k-point    29 :   0.0000 0.0000 0.2500  plane waves:    3813
 k-point    30 :   0.0769 0.0000 0.2500  plane waves:    3836
 k-point    31 :   0.1538 0.0000 0.2500  plane waves:    3844
 k-point    32 :   0.2308 0.0000 0.2500  plane waves:    3844
 k-point    33 :   0.3077 0.0000 0.2500  plane waves:    3835
 k-point    34 :   0.3846 0.0000 0.2500  plane waves:    3815
 k-point    35 :   0.4615 0.0000 0.2500  plane waves:    3818
 k-point    36 :   0.0769 0.0769 0.2500  plane waves:    3841
 k-point    37 :   0.1538 0.0769 0.2500  plane waves:    3833
 k-point    38 :   0.2308 0.0769 0.2500  plane waves:    3834
 k-point    39 :   0.3077 0.0769 0.2500  plane waves:    3824
 k-point    40 :   0.3846 0.0769 0.2500  plane waves:    3815
 k-point    41 :   0.4615 0.0769 0.2500  plane waves:    3815
 k-point    42 :   0.1538 0.1538 0.2500  plane waves:    3835
 k-point    43 :   0.2308 0.1538 0.2500  plane waves:    3830
 k-point    44 :   0.3077 0.1538 0.2500  plane waves:    3814
 k-point    45 :   0.3846 0.1538 0.2500  plane waves:    3817
 k-point    46 :   0.4615 0.1538 0.2500  plane waves:    3820
 k-point    47 :   0.2308 0.2308 0.2500  plane waves:    3824
 k-point    48 :   0.3077 0.2308 0.2500  plane waves:    3818
 k-point    49 :   0.3846 0.2308 0.2500  plane waves:    3811
 k-point    50 :   0.4615 0.2308 0.2500  plane waves:    3808
 k-point    51 :   0.3077 0.3077 0.2500  plane waves:    3811
 k-point    52 :   0.3846 0.3077 0.2500  plane waves:    3819
 k-point    53 :   0.4615 0.3077 0.2500  plane waves:    3821
 k-point    54 :   0.3846 0.3846 0.2500  plane waves:    3830
 k-point    55 :   0.4615 0.3846 0.2500  plane waves:    3836
 k-point    56 :   0.4615 0.4615 0.2500  plane waves:    3835
 k-point    57 :   0.0000 0.0000 0.5000  plane waves:    3824
 k-point    58 :   0.0769 0.0000 0.5000  plane waves:    3824
 k-point    59 :   0.1538 0.0000 0.5000  plane waves:    3826
 k-point    60 :   0.2308 0.0000 0.5000  plane waves:    3830
 k-point    61 :   0.3077 0.0000 0.5000  plane waves:    3828
 k-point    62 :   0.3846 0.0000 0.5000  plane waves:    3798
 k-point    63 :   0.4615 0.0000 0.5000  plane waves:    3822
 k-point    64 :   0.0769 0.0769 0.5000  plane waves:    3826
 k-point    65 :   0.1538 0.0769 0.5000  plane waves:    3840
 k-point    66 :   0.2308 0.0769 0.5000  plane waves:    3834
 k-point    67 :   0.3077 0.0769 0.5000  plane waves:    3816
 k-point    68 :   0.3846 0.0769 0.5000  plane waves:    3810
 k-point    69 :   0.4615 0.0769 0.5000  plane waves:    3814
 k-point    70 :   0.1538 0.1538 0.5000  plane waves:    3852
 k-point    71 :   0.2308 0.1538 0.5000  plane waves:    3822
 k-point    72 :   0.3077 0.1538 0.5000  plane waves:    3800
 k-point    73 :   0.3846 0.1538 0.5000  plane waves:    3828
 k-point    74 :   0.4615 0.1538 0.5000  plane waves:    3816
 k-point    75 :   0.2308 0.2308 0.5000  plane waves:    3818
 k-point    76 :   0.3077 0.2308 0.5000  plane waves:    3816
 k-point    77 :   0.3846 0.2308 0.5000  plane waves:    3816
 k-point    78 :   0.4615 0.2308 0.5000  plane waves:    3820
 k-point    79 :   0.3077 0.3077 0.5000  plane waves:    3814
 k-point    80 :   0.3846 0.3077 0.5000  plane waves:    3830
 k-point    81 :   0.4615 0.3077 0.5000  plane waves:    3818
 k-point    82 :   0.3846 0.3846 0.5000  plane waves:    3830
 k-point    83 :   0.4615 0.3846 0.5000  plane waves:    3826
 k-point    84 :   0.4615 0.4615 0.5000  plane waves:    3834

 maximum and minimum number of plane-waves per node :      3865     3796

 maximum number of plane-waves:      3865
 maximum index in each direction: 
   IXMAX=    6   IYMAX=    6   IZMAX=   20
   IXMIN=   -7   IYMIN=   -7   IZMIN=  -20


 serial   3D FFT for wavefunctions
 parallel 3D FFT for charge:
    minimum data exchange during FFTs selected (reduces bandwidth)


 total amount of memory used by VASP MPI-rank0   264608. kBytes
=======================================================================

   base      :      30000. kBytes
   nonl-proj :      94414. kBytes
   fftplans  :        888. kBytes
   grid      :       6813. kBytes
   one-center:        373. kBytes
   wavefun   :     132120. kBytes
 
     INWAV:  cpu time      0.0000: real time      0.0000
 Broyden mixing: mesh for mixing (old mesh)
   NGX = 13   NGY = 13   NGZ = 41
  (NGX  = 56   NGY  = 56   NGZ  =168)
  gives a total of   6929 points

 initial charge density was supplied:
 charge density of overlapping atoms calculated
 number of electron     156.0000000 magnetization       7.9040000
 charge density for first step will be calculated from the start-wavefunctions


--------------------------------------------------------------------------------------------------------


 Maximum index for augmentation-charges         1095 (set IRDMAX)


--------------------------------------------------------------------------------------------------------


 First call to EWALD:  gamma=   0.340
 Maximum number of real-space cells 4x 4x 2
 Maximum number of reciprocal cells 2x 2x 5

    FEWALD:  cpu time      0.0026: real time      0.0026


--------------------------------------- Ionic step        1  -------------------------------------------




--------------------------------------- Iteration      1(   1)  ---------------------------------------


    POTLOK:  cpu time      0.0361: real time      0.0366
    SETDIJ:  cpu time      0.0142: real time      0.0147
    TRIAL :  cpu time      5.6824: real time      5.7239
    CORREC:  cpu time      0.0036: real time      0.0036
    --------------------------------------------
      LOOP:  cpu time      5.8524: real time      5.8978

 eigenvalue-minimisations  : 43104
 total energy-change (2. order) : 0.1759769E+04  (-0.9127912E+04)
 number of electron     156.0000000 magnetization       7.9040000
 augmentation part      156.0000000 magnetization       7.9040000

 Free energy of the ion-electron system (eV)
  ---------------------------------------------------
  alpha Z        PSCENC =      1198.52203918
  Ewald energy   TEWEN  =    -18666.03894729
  -Hartree energ DENC   =     -5707.15437841
  -exchange      EXHF   =         0.00000000
  -V(xc)+E(xc)   XCENC  =       659.75699023
  PAW double counting   =     20095.68595257   -20819.77430129
  entropy T*S    EENTRO =        -0.00138897
  eigenvalues    EBANDS =       694.67038369
  atomic energy  EATOM  =     24304.10294433
  ---------------------------------------------------
  free energy    TOTEN  =      1759.76929403 eV

  energy without entropy =     1759.77068300  energy(sigma->0) =     1759.76975702


--------------------------------------------------------------------------------------------------------




--------------------------------------- Iteration      1(   2)  ---------------------------------------


    TRIAL :  cpu time      5.5808: real time      5.6207
    CORREC:  cpu time      0.0026: real time      0.0026
    --------------------------------------------
      LOOP:  cpu time      5.5905: real time      5.6452

 eigenvalue-minimisations  : 43008
 total energy-change (2. order) :-0.1754174E+04  (-0.1664470E+04)
 number of electron     156.0000000 magnetization       7.9040000
 augmentation part      156.0000000 magnetization       7.9040000

 Free energy of the ion-electron system (eV)
  ---------------------------------------------------
  alpha Z        PSCENC =      1198.52203918
  Ewald energy   TEWEN  =    -18666.03894729
  -Hartree energ DENC   =     -5707.15437841
  -exchange      EXHF   =         0.00000000
  -V(xc)+E(xc)   XCENC  =       659.75699023
  PAW double counting   =     20095.68595257   -20819.77430129
  entropy T*S    EENTRO =        -0.00084120
  eigenvalues    EBANDS =     -1059.50465587
  atomic energy  EATOM  =     24304.10294433
  ---------------------------------------------------
  free energy    TOTEN  =         5.59480225 eV

  energy without entropy =        5.59564344  energy(sigma->0) =        5.59508265


--------------------------------------------------------------------------------------------------------




--------------------------------------- Iteration      1(   3)  ---------------------------------------


    TRIAL :  cpu time      6.6129: real time      6.6595
    CORREC:  cpu time      0.0027: real time      0.0027
    --------------------------------------------
      LOOP:  cpu time      6.6240: real time      6.6847

 eigenvalue-minimisations  : 50688
 total energy-change (2. order) :-0.1088854E+03  (-0.1075945E+03)
 number of electron     156.0000000 magnetization       7.9040000
 augmentation part      156.0000000 magnetization       7.9040000

 Free energy of the ion-electron system (eV)
  ---------------------------------------------------
  alpha Z        PSCENC =      1198.52203918
  Ewald energy   TEWEN  =    -18666.03894729
  -Hartree energ DENC   =     -5707.15437841
  -exchange      EXHF   =         0.00000000
  -V(xc)+E(xc)   XCENC  =       659.75699023
  PAW double counting   =     20095.68595257   -20819.77430129
  entropy T*S    EENTRO =         0.00563891
  eigenvalues    EBANDS =     -1168.39649442
  atomic energy  EATOM  =     24304.10294433
  ---------------------------------------------------
  free energy    TOTEN  =      -103.29055620 eV

  energy without entropy =     -103.29619511  energy(sigma->0) =     -103.29243584


--------------------------------------------------------------------------------------------------------




--------------------------------------- Iteration      1(   4)  ---------------------------------------


    TRIAL :  cpu time      5.9003: real time      5.9442
    CORREC:  cpu time      0.0026: real time      0.0026
    --------------------------------------------
      LOOP:  cpu time      5.9111: real time      5.9694

 eigenvalue-minimisations  : 45824
 total energy-change (2. order) :-0.1495070E+01  (-0.1494790E+01)
 number of electron     156.0000000 magnetization       7.9040000
 augmentation part      156.0000000 magnetization       7.9040000

 Free energy of the ion-electron system (eV)
  ---------------------------------------------------
  alpha Z        PSCENC =      1198.52203918
  Ewald energy   TEWEN  =    -18666.03894729
  -Hartree energ DENC   =     -5707.15437841
  -exchange      EXHF   =         0.00000000
  -V(xc)+E(xc)   XCENC  =       659.75699023
  PAW double counting   =     20095.68595257   -20819.77430129
  entropy T*S    EENTRO =         0.00558079
  eigenvalues    EBANDS =     -1169.89150626
  atomic energy  EATOM  =     24304.10294433
  ---------------------------------------------------
  free energy    TOTEN  =      -104.78562616 eV

  energy without entropy =     -104.79120695  energy(sigma->0) =     -104.78748642


--------------------------------------------------------------------------------------------------------




--------------------------------------- Iteration      1(   5)  ---------------------------------------


    TRIAL :  cpu time      7.0700: real time      7.1172
    CORREC:  cpu time      0.0026: real time      0.0026
    CHARGE:  cpu time      0.1751: real time      0.1764
    --------------------------------------------
      LOOP:  cpu time      7.2564: real time      7.3190

 eigenvalue-minimisations  : 52992
 total energy-change (2. order) :-0.2640291E-01  (-0.2640214E-01)
 number of electron     155.9999764 magnetization       6.4094042
 augmentation part       79.2641129 magnetization       4.6229868

 Free energy of the ion-electron system (eV)
  ---------------------------------------------------
  alpha Z        PSCENC =      1198.52203918
  Ewald energy   TEWEN  =    -18666.03894729
  -Hartree energ DENC   =     -5707.15437841
  -exchange      EXHF   =         0.00000000
  -V(xc)+E(xc)   XCENC  =       659.75699023
  PAW double counting   =     20095.68595257   -20819.77430129
  entropy T*S    EENTRO =         0.00558016
  eigenvalues    EBANDS =     -1169.91790853
  atomic energy  EATOM  =     24304.10294433
  ---------------------------------------------------
  free energy    TOTEN  =      -104.81202906 eV

  energy without entropy =     -104.81760922  energy(sigma->0) =     -104.81388911


--------------------------------------------------------------------------------------------------------




--------------------------------------- Iteration      1(   6)  ---------------------------------------


    POTLOK:  cpu time      0.0218: real time      0.0220
    SETDIJ:  cpu time      0.0081: real time      0.0081
    TRIAL :  cpu time      2.7243: real time      2.7509
    CORREC:  cpu time      1.0795: real time      1.0903
    CHARGE:  cpu time      0.1629: real time      0.1638
    --------------------------------------------
      LOOP:  cpu time      4.0052: real time      4.0584

 eigenvalue-minimisations  :     0
 total energy-change (2. order) : 0.4847198E+02  (-0.9587878E+01)
 number of electron     155.9999762 magnetization       6.3781381
 augmentation part       80.1250198 magnetization       4.5842345

 Free energy of the ion-electron system (eV)
  ---------------------------------------------------
  alpha Z        PSCENC =      1198.52203918
  Ewald energy   TEWEN  =    -18666.03894729
  -Hartree energ DENC   =     -4657.94115165
  -exchange      EXHF   =         0.00000000
  -V(xc)+E(xc)   XCENC  =       614.93024610
  PAW double counting   =     21980.18322882   -22652.38097233
  entropy T*S    EENTRO =        -0.00388001
  eigenvalues    EBANDS =     -2177.72301725
  atomic energy  EATOM  =     24304.10294433
  ---------------------------------------------------
  free energy    TOTEN  =       -56.34004994 eV

  energy without entropy =      -56.33616993  energy(sigma->0) =      -56.33875661


--------------------------------------------------------------------------------------------------------




--------------------------------------- Iteration      1(   7)  ---------------------------------------


    POTLOK:  cpu time      0.0213: real time      0.0215
    SETDIJ:  cpu time      0.0084: real time      0.0085
    TRIAL :  cpu time      2.7845: real time      2.8110
    CORREC:  cpu time      1.0745: real time      1.0855
    CHARGE:  cpu time      0.1589: real time      0.1600
    --------------------------------------------
      LOOP:  cpu time      4.0573: real time      4.1097

 eigenvalue-minimisations  :     0
 total energy-change (2. order) :-0.1239601E+02  (-0.1451206E+02)
 number of electron     155.9999755 magnetization       6.5341589
 augmentation part       82.7162731 magnetization       4.8576804

 Free energy of the ion-electron system (eV)
  ---------------------------------------------------
  alpha Z        PSCENC =      1198.52203918
  Ewald energy   TEWEN  =    -18666.03894729
  -Hartree energ DENC   =     -4773.70410968
  -exchange      EXHF   =         0.00000000
  -V(xc)+E(xc)   XCENC  =       619.61847091
  PAW double counting   =     22028.88809778   -22723.16985681
  entropy T*S    EENTRO =        -0.00508374
  eigenvalues    EBANDS =     -2056.95081706
  atomic energy  EATOM  =     24304.10294433
  ---------------------------------------------------
  free energy    TOTEN  =       -68.73605865 eV

  energy without entropy =      -68.73097491  energy(sigma->0) =      -68.73436407


--------------------------------------------------------------------------------------------------------




--------------------------------------- Iteration      1(   8)  ---------------------------------------


    POTLOK:  cpu time      0.0215: real time      0.0217
    SETDIJ:  cpu time      0.0081: real time      0.0082
    TRIAL :  cpu time      2.6775: real time      2.7029
    CORREC:  cpu time      1.0860: real time      1.0974
    CHARGE:  cpu time      0.1558: real time      0.1568
    --------------------------------------------
      LOOP:  cpu time      3.9580: real time      4.0105

 eigenvalue-minimisations  :     0
 total energy-change (2. order) :-0.1632486E+02  (-0.2778185E+01)
 number of electron     155.9999753 magnetization       6.7377539
 augmentation part       83.5438657 magnetization       5.0479375

 Free energy of the ion-electron system (eV)
  ---------------------------------------------------
  alpha Z        PSCENC =      1198.52203918
  Ewald energy   TEWEN  =    -18666.03894729
  -Hartree energ DENC   =     -5127.95206107
  -exchange      EXHF   =         0.00000000
  -V(xc)+E(xc)   XCENC  =       634.38046273
  PAW double counting   =     22405.72027087   -23167.66853366
  entropy T*S    EENTRO =         0.00510104
  eigenvalues    EBANDS =     -1666.12200888
  atomic energy  EATOM  =     24304.10294433
  ---------------------------------------------------
  free energy    TOTEN  =       -85.06091753 eV

  energy without entropy =      -85.06601856  energy(sigma->0) =      -85.06261787


--------------------------------------------------------------------------------------------------------




--------------------------------------- Iteration      1(   9)  ---------------------------------------


    POTLOK:  cpu time      0.0215: real time      0.0217
    SETDIJ:  cpu time      0.0082: real time      0.0083
    TRIAL :  cpu time      2.7442: real time      2.7706
    CORREC:  cpu time      1.0757: real time      1.0869
    CHARGE:  cpu time      0.1547: real time      0.1556
    --------------------------------------------
      LOOP:  cpu time      4.0272: real time      4.0663

 eigenvalue-minimisations  :     0
 total energy-change (2. order) :-0.2509812E+01  (-0.9177632E+00)
 number of electron     155.9999753 magnetization       6.8594227
 augmentation part       83.9094261 magnetization       5.1238066

 Free energy of the ion-electron system (eV)
  ---------------------------------------------------
  alpha Z        PSCENC =      1198.52203918
  Ewald energy   TEWEN  =    -18666.03894729
  -Hartree energ DENC   =     -5236.18341236
  -exchange      EXHF   =         0.00000000
  -V(xc)+E(xc)   XCENC  =       639.12130125
  PAW double counting   =     22570.93724542   -23351.11656428
  entropy T*S    EENTRO =         0.00859613
  eigenvalues    EBANDS =     -1546.92043705
  atomic energy  EATOM  =     24304.10294433
  ---------------------------------------------------
  free energy    TOTEN  =       -87.57072977 eV

  energy without entropy =      -87.57932590  energy(sigma->0) =      -87.57359515


--------------------------------------------------------------------------------------------------------




--------------------------------------- Iteration      1(  10)  ---------------------------------------


    POTLOK:  cpu time      0.0220: real time      0.0222
    SETDIJ:  cpu time      0.0072: real time      0.0072
    TRIAL :  cpu time      2.6429: real time      2.6689
    CORREC:  cpu time      1.0732: real time      1.0843
    CHARGE:  cpu time      0.1545: real time      0.1555
    --------------------------------------------
      LOOP:  cpu time      3.9079: real time      3.9612

 eigenvalue-minimisations  :     0
 total energy-change (2. order) :-0.1165180E+01  (-0.5695651E+00)
 number of electron     155.9999753 magnetization       6.9269424
 augmentation part       84.0621135 magnetization       5.1617590

 Free energy of the ion-electron system (eV)
  ---------------------------------------------------
  alpha Z        PSCENC =      1198.52203918
  Ewald energy   TEWEN  =    -18666.03894729
  -Hartree energ DENC   =     -5283.16748159
  -exchange      EXHF   =         0.00000000
  -V(xc)+E(xc)   XCENC  =       641.16657923
  PAW double counting   =     22645.61267561   -23432.02920564
  entropy T*S    EENTRO =         0.00945359
  eigenvalues    EBANDS =     -1496.91310972
  atomic energy  EATOM  =     24304.10294433
  ---------------------------------------------------
  free energy    TOTEN  =       -88.73590975 eV

  energy without entropy =      -88.74536334  energy(sigma->0) =      -88.73906095


--------------------------------------------------------------------------------------------------------




--------------------------------------- Iteration      1(  11)  ---------------------------------------


    POTLOK:  cpu time      0.0211: real time      0.0213
    SETDIJ:  cpu time      0.0087: real time      0.0088
    TRIAL :  cpu time      2.6337: real time      2.6589
    CORREC:  cpu time      1.0762: real time      1.0871
    CHARGE:  cpu time      0.1538: real time      0.1548
    --------------------------------------------
      LOOP:  cpu time      3.9168: real time      3.9544

 eigenvalue-minimisations  :     0
 total energy-change (2. order) :-0.6085718E+00  (-0.1438644E+01)
 number of electron     155.9999753 magnetization       7.0757809
 augmentation part       84.4608026 magnetization       5.3009253

 Free energy of the ion-electron system (eV)
  ---------------------------------------------------
  alpha Z        PSCENC =      1198.52203918
  Ewald energy   TEWEN  =    -18666.03894729
  -Hartree energ DENC   =     -5299.41628427
  -exchange      EXHF   =         0.00000000
  -V(xc)+E(xc)   XCENC  =       641.92133701
  PAW double counting   =     22664.88626463   -23450.85346925
  entropy T*S    EENTRO =         0.02041588
  eigenvalues    EBANDS =     -1482.47781946
  atomic energy  EATOM  =     24304.10294433
  ---------------------------------------------------
  free energy    TOTEN  =       -89.34448153 eV

  energy without entropy =      -89.36489741  energy(sigma->0) =      -89.35128683


--------------------------------------------------------------------------------------------------------




--------------------------------------- Iteration      1(  12)  ---------------------------------------


    POTLOK:  cpu time      0.0214: real time      0.0216
    SETDIJ:  cpu time      0.0078: real time      0.0079
    TRIAL :  cpu time      2.7245: real time      2.7502
    CORREC:  cpu time      1.0683: real time      1.0800
    CHARGE:  cpu time      0.1515: real time      0.1525
    --------------------------------------------
      LOOP:  cpu time      3.9825: real time      4.0351

 eigenvalue-minimisations  :     0
 total energy-change (2. order) :-0.1502402E+01  (-0.3478033E+00)
 number of electron     155.9999753 magnetization       7.1035948
 augmentation part       84.5560532 magnetization       5.3408492

 Free energy of the ion-electron system (eV)
  ---------------------------------------------------
  alpha Z        PSCENC =      1198.52203918
  Ewald energy   TEWEN  =    -18666.03894729
  -Hartree energ DENC   =     -5330.02394694
  -exchange      EXHF   =         0.00000000
  -V(xc)+E(xc)   XCENC  =       643.73252069
  PAW double counting   =     22710.15760468   -23488.11115392
  entropy T*S    EENTRO =         0.03096269
  eigenvalues    EBANDS =     -1463.20836038
  atomic energy  EATOM  =     24304.10294433
  ---------------------------------------------------
  free energy    TOTEN  =       -90.84688377 eV

  energy without entropy =      -90.87784646  energy(sigma->0) =      -90.85720467


--------------------------------------------------------------------------------------------------------




--------------------------------------- Iteration      1(  13)  ---------------------------------------


    POTLOK:  cpu time      0.0215: real time      0.0217
    SETDIJ:  cpu time      0.0080: real time      0.0080
    TRIAL :  cpu time      2.6721: real time      2.6972
    CORREC:  cpu time      1.1651: real time      1.1764
    CHARGE:  cpu time      0.1530: real time      0.1540
    --------------------------------------------
      LOOP:  cpu time      4.0289: real time      4.0807

 eigenvalue-minimisations  :     0
 total energy-change (2. order) :-0.5227911E+00  (-0.3924131E+00)
 number of electron     155.9999753 magnetization       7.1052932
 augmentation part       84.5388843 magnetization       5.3594776

 Free energy of the ion-electron system (eV)
  ---------------------------------------------------
  alpha Z        PSCENC =      1198.52203918
  Ewald energy   TEWEN  =    -18666.03894729
  -Hartree energ DENC   =     -5336.44740217
  -exchange      EXHF   =         0.00000000
  -V(xc)+E(xc)   XCENC  =       644.19103144
  PAW double counting   =     22725.32735161   -23500.90852978
  entropy T*S    EENTRO =         0.03007932
  eigenvalues    EBANDS =     -1460.14912492
  atomic energy  EATOM  =     24304.10294433
  ---------------------------------------------------
  free energy    TOTEN  =       -91.36967491 eV

  energy without entropy =      -91.39975423  energy(sigma->0) =      -91.37970135


--------------------------------------------------------------------------------------------------------




--------------------------------------- Iteration      1(  14)  ---------------------------------------


    POTLOK:  cpu time      0.0217: real time      0.0219
    SETDIJ:  cpu time      0.0074: real time      0.0075
    TRIAL :  cpu time      2.7789: real time      2.8051
    CORREC:  cpu time      1.0781: real time      1.0897
    CHARGE:  cpu time      0.1536: real time      0.1544
    --------------------------------------------
      LOOP:  cpu time      4.0482: real time      4.1021

 eigenvalue-minimisations  :     0
 total energy-change (2. order) :-0.3325746E+00  (-0.2756502E+00)
 number of electron     155.9999754 magnetization       7.2164849
 augmentation part       84.4846031 magnetization       5.4179204

 Free energy of the ion-electron system (eV)
  ---------------------------------------------------
  alpha Z        PSCENC =      1198.52203918
  Ewald energy   TEWEN  =    -18666.03894729
  -Hartree energ DENC   =     -5334.06840493
  -exchange      EXHF   =         0.00000000
  -V(xc)+E(xc)   XCENC  =       644.14489768
  PAW double counting   =     22719.18418859   -23493.83631688
  entropy T*S    EENTRO =         0.02033822
  eigenvalues    EBANDS =     -1463.74272955
  atomic energy  EATOM  =     24304.10294433
  ---------------------------------------------------
  free energy    TOTEN  =       -91.70224955 eV

  energy without entropy =      -91.72258777  energy(sigma->0) =      -91.70902896


--------------------------------------------------------------------------------------------------------




--------------------------------------- Iteration      1(  15)  ---------------------------------------


    POTLOK:  cpu time      0.0216: real time      0.0218
    SETDIJ:  cpu time      0.0080: real time      0.0081
    TRIAL :  cpu time      2.6661: real time      2.6920
    CORREC:  cpu time      1.0757: real time      1.0869
    CHARGE:  cpu time      0.1526: real time      0.1534
    --------------------------------------------
      LOOP:  cpu time      3.9328: real time      3.9850

 eigenvalue-minimisations  :     0
 total energy-change (2. order) :-0.2700557E+00  (-0.3403444E+00)
 number of electron     155.9999754 magnetization       7.2364238
 augmentation part       84.4166789 magnetization       5.4564706

 Free energy of the ion-electron system (eV)
  ---------------------------------------------------
  alpha Z        PSCENC =      1198.52203918
  Ewald energy   TEWEN  =    -18666.03894729
  -Hartree energ DENC   =     -5332.68947032
  -exchange      EXHF   =         0.00000000
  -V(xc)+E(xc)   XCENC  =       644.01433638
  PAW double counting   =     22699.39436387   -23470.82680166
  entropy T*S    EENTRO =         0.01271458
  eigenvalues    EBANDS =     -1468.47110799
  atomic energy  EATOM  =     24304.10294433
  ---------------------------------------------------
  free energy    TOTEN  =       -91.97230528 eV

  energy without entropy =      -91.98501986  energy(sigma->0) =      -91.97654347


--------------------------------------------------------------------------------------------------------




--------------------------------------- Iteration      1(  16)  ---------------------------------------


    POTLOK:  cpu time      0.0210: real time      0.0213
    SETDIJ:  cpu time      0.0078: real time      0.0078
    TRIAL :  cpu time      2.6600: real time      2.6857
    CORREC:  cpu time      1.0867: real time      1.0983
    CHARGE:  cpu time      0.1518: real time      0.1526
    --------------------------------------------
      LOOP:  cpu time      3.9373: real time      3.9892

 eigenvalue-minimisations  :     0
 total energy-change (2. order) :-0.3333112E+00  (-0.1842720E+00)
 number of electron     155.9999754 magnetization       7.2865847
 augmentation part       84.4000968 magnetization       5.4895621

 Free energy of the ion-electron system (eV)
  ---------------------------------------------------
  alpha Z        PSCENC =      1198.52203918
  Ewald energy   TEWEN  =    -18666.03894729
  -Hartree energ DENC   =     -5330.21391482
  -exchange      EXHF   =         0.00000000
  -V(xc)+E(xc)   XCENC  =       643.89324586
  PAW double counting   =     22674.25939270   -23440.35106009
  entropy T*S    EENTRO =         0.01144661
  eigenvalues    EBANDS =     -1476.49203097
  atomic energy  EATOM  =     24304.10294433
  ---------------------------------------------------
  free energy    TOTEN  =       -92.30561651 eV

  energy without entropy =      -92.31706312  energy(sigma->0) =      -92.30943205


--------------------------------------------------------------------------------------------------------




--------------------------------------- Iteration      1(  17)  ---------------------------------------


    POTLOK:  cpu time      0.0211: real time      0.0214
    SETDIJ:  cpu time      0.0080: real time      0.0080
    TRIAL :  cpu time      2.7411: real time      2.7676
    CORREC:  cpu time      1.0717: real time      1.0831
    CHARGE:  cpu time      0.1525: real time      0.1534
    --------------------------------------------
      LOOP:  cpu time      4.0035: real time      4.0568

 eigenvalue-minimisations  :     0
 total energy-change (2. order) :-0.1833787E+00  (-0.9688800E-01)
 number of electron     155.9999755 magnetization       7.3594351
[...]
     61       9.8320      1.00000
     62       9.8477      1.00000
     63       9.9342      1.00000
     64       9.9844      1.00000
     65      10.0329      1.00000
     66      10.0391      1.00000
     67      10.2118      1.00000
     68      10.2159      1.00000
     69      10.2885      1.00000
     70      10.5832      1.00027
     71      10.6327      1.00093
     72      10.6913      1.00322
     73      10.7369      1.00733
     74      10.7446      1.00818
     75      10.7522      1.00942
     76      11.0080      0.94984
     77      11.3869     -0.03546
     78      11.4781     -0.01952
     79      11.5111     -0.01280
     80      11.6402     -0.00136
     81      11.6860     -0.00042
     82      11.9048     -0.00000
     83      12.0569     -0.00000
     84      12.1060     -0.00000
     85      12.1765     -0.00000
     86      12.2587     -0.00000
     87      12.3143     -0.00000
     88      12.7469     -0.00000
     89      12.8604     -0.00000
     90      12.9586     -0.00000
     91      12.9994     -0.00000
     92      13.1657     -0.00000
     93      13.5492     -0.00000
     94      13.5563     -0.00000
     95      13.7420     -0.00000
     96      14.1307     -0.00000
     97      14.2217     -0.00000
     98      14.2335     -0.00000
     99      14.7902     -0.00000
    100      17.0744      0.00000
    101      19.2153      0.00000
    102      19.2549      0.00000
    103      19.3237      0.00000
    104      20.1543      0.00000
    105      20.3121      0.00000
    106      20.8773      0.00000
    107      21.0181      0.00000
    108      21.4294      0.00000
    109      21.5823      0.00000
    110      21.9943      0.00000
    111      22.0684      0.00000
    112      26.4623      0.00000
    113      26.5598      0.00000
    114      26.9518      0.00000
    115      26.9788      0.00000
    116      27.3189      0.00000
    117      27.4530      0.00000
    118      28.2993      0.00000
    119      28.4429      0.00000
    120      29.0851      0.00000
    121      29.1247      0.00000
    122      29.1504      0.00000
    123      29.6994      0.00000
    124      30.7566      0.00000
    125      31.0017      0.00000
    126      31.2074      0.00000
    127      31.4041      0.00000
    128      32.1701      0.00000


--------------------------------------------------------------------------------------------------------


 soft charge-density along one line, spin component           1
         0         1         2         3         4         5         6         7         8         9
 total charge-density along one line
 
 soft charge-density along one line, spin component           2
         0         1         2         3         4         5         6         7         8         9
 total charge-density along one line
 
 pseudopotential strength for first ion, spin component:           1
-42.125  -0.000  -0.000   6.424   0.000   0.000   0.000  -0.001
 -0.000 -42.162  -0.000   0.000   6.438   0.000  -0.000   0.000
 -0.000  -0.000 -42.101   0.000   0.000   6.413   0.000  -0.000
  6.424   0.000   0.000   5.941   0.000   0.000   0.000   0.000
  0.000   6.438   0.000   0.000   5.937   0.000   0.000  -0.000
  0.000   0.000   6.413   0.000   0.000   5.942  -0.000   0.000
  0.000  -0.000   0.000   0.000   0.000  -0.000   0.192  -0.000
 -0.001   0.000  -0.000   0.000  -0.000   0.000  -0.000   0.199
 -0.000  -0.001   0.000   0.000   0.002   0.000   0.000  -0.000
 -0.000   0.000  -0.010   0.000  -0.000   0.006  -0.000   0.000
 -0.000  -0.004  -0.000   0.000   0.003   0.000  -0.000   0.000
 -0.000  -0.000   0.000   0.000   0.000  -0.000  -0.358  -0.000
 -0.001   0.000  -0.000   0.000  -0.000   0.000  -0.000  -0.351
 -0.000  -0.001   0.000   0.000   0.002  -0.000   0.000  -0.000
 -0.000  -0.000  -0.009   0.000   0.000   0.006  -0.000   0.000
 -0.000  -0.004  -0.000   0.000   0.003   0.000  -0.000   0.000
 -0.000   0.003   0.000  -0.000   0.001   0.000   0.000   0.000
 -0.000   0.008   0.000  -0.000   0.003   0.000   0.000   0.000
 pseudopotential strength for first ion, spin component:           2
-43.932  -0.000  -0.000   7.187   0.000   0.000   0.000   0.004
 -0.000 -44.002  -0.000   0.000   7.213   0.000  -0.000   0.000
 -0.000  -0.000 -43.855   0.000   0.000   7.154   0.000  -0.000
  7.187   0.000   0.000   5.730   0.000   0.000   0.000  -0.003
  0.000   7.213   0.000   0.000   5.723   0.000   0.000  -0.000
  0.000   0.000   7.154   0.000   0.000   5.734  -0.000   0.000
  0.000  -0.000   0.000   0.000   0.000  -0.000  -1.177  -0.000
  0.004   0.000  -0.000  -0.003  -0.000   0.000  -0.000  -1.338
 -0.000   0.012   0.000   0.000  -0.006   0.000   0.000  -0.000
 -0.000   0.000   0.020   0.000  -0.000  -0.010  -0.000  -0.000
 -0.000   0.008  -0.000   0.000  -0.003  -0.000  -0.000   0.000
 -0.000  -0.000   0.000  -0.000   0.000  -0.000  -1.704  -0.000
  0.004   0.000  -0.000  -0.003  -0.000   0.000  -0.000  -1.863
 -0.000   0.012   0.000   0.000  -0.006  -0.000   0.000  -0.000
 -0.000  -0.000   0.020   0.000   0.000  -0.009  -0.000  -0.000
 -0.000   0.008  -0.000   0.000  -0.003   0.000  -0.000   0.000
 -0.000  -0.004   0.000  -0.000   0.003   0.000   0.000   0.000
 -0.000  -0.012   0.000  -0.000   0.008   0.000   0.000   0.000
 total augmentation occupancy for first ion, spin component:           1
  1.992   0.000   0.000  -0.025   0.000   0.000   0.000  -0.005   0.000  -0.000   0.000   0.000   0.005   0.000   0.000   0.000
  0.000   1.992   0.000   0.000  -0.025   0.000   0.000   0.000  -0.004   0.000   0.002   0.000  -0.000   0.004   0.000  -0.002
  0.000   0.000   1.992   0.000   0.000  -0.026   0.000   0.000   0.000  -0.002  -0.000   0.000   0.000   0.000   0.002   0.000
 -0.025   0.000   0.000   0.213   0.000   0.000   0.000  -0.013  -0.000   0.000   0.000   0.000   0.017   0.000   0.000   0.000
  0.000  -0.025   0.000   0.000   0.214   0.000   0.000   0.000  -0.010   0.000   0.013   0.000  -0.000   0.004   0.000  -0.021
  0.000   0.000  -0.026   0.000   0.000   0.192   0.000   0.000   0.000   0.007   0.000   0.000   0.000   0.000  -0.022  -0.000
  0.000   0.000   0.000   0.000   0.000   0.000   2.548   0.000  -0.000   0.000   0.000  -1.508   0.000   0.000   0.000   0.000
 -0.005   0.000   0.000  -0.013   0.000   0.000   0.000   2.912   0.000   0.000  -0.000   0.000  -2.208   0.000   0.000  -0.000
  0.000  -0.004   0.000  -0.000  -0.010   0.000  -0.000   0.000   3.237   0.000   0.223   0.000  -0.000  -1.983   0.000  -0.110
 -0.000   0.000  -0.002   0.000   0.000   0.007   0.000   0.000   0.000   2.449   0.000  -0.000   0.000   0.000  -1.445  -0.000
  0.000   0.002  -0.000   0.000   0.013   0.000   0.000  -0.000   0.223   0.000   2.999   0.000   0.000  -0.112   0.000  -1.855
  0.000   0.000   0.000   0.000   0.000   0.000  -1.508   0.000   0.000  -0.000   0.000   1.883   0.000   0.000   0.000   0.000
  0.005  -0.000   0.000   0.017  -0.000   0.000   0.000  -2.208  -0.000   0.000   0.000   0.000   2.744   0.000   0.000  -0.000
  0.000   0.004   0.000   0.000   0.004   0.000   0.000   0.000  -1.983   0.000  -0.112   0.000   0.000   2.057   0.000   0.036
  0.000   0.000   0.002   0.000   0.000  -0.022   0.000   0.000   0.000  -1.445   0.000   0.000   0.000   0.000   1.824   0.000
  0.000  -0.002   0.000   0.000  -0.021  -0.000   0.000  -0.000  -0.110  -0.000  -1.855   0.000  -0.000   0.036   0.000   2.012
  0.000  -0.001   0.000   0.000   0.002   0.000   0.000   0.000  -0.118   0.000   0.204   0.000   0.000   0.087   0.000  -0.162
  0.000   0.001   0.000   0.000  -0.000  -0.000   0.000   0.000   0.013   0.000  -0.012   0.000   0.000  -0.007   0.000   0.010
 total augmentation occupancy for first ion, spin component:           2
  0.002   0.000   0.000   0.007   0.000   0.000   0.000   0.003   0.000   0.000   0.000   0.000  -0.003   0.000   0.000   0.000
  0.000   0.002  -0.000   0.000   0.007  -0.000  -0.000   0.000   0.005   0.000   0.004   0.000   0.000  -0.006   0.000  -0.004
  0.000  -0.000   0.002   0.000  -0.000   0.007   0.000   0.000   0.000   0.011   0.000  -0.000   0.000   0.000  -0.011   0.000
  0.007   0.000   0.000  -0.007   0.000   0.000   0.000   0.015   0.000   0.000   0.000   0.000  -0.016   0.000  -0.000   0.000
  0.000   0.007  -0.000   0.000  -0.001   0.000  -0.000   0.000  -0.010   0.000  -0.041   0.000  -0.000  -0.006   0.000   0.018
  0.000  -0.000   0.007   0.000   0.000  -0.004   0.000   0.000   0.000  -0.071  -0.000   0.000   0.000   0.000   0.021   0.000
  0.000  -0.000   0.000   0.000  -0.000   0.000  -1.672   0.000  -0.000   0.000   0.000   0.725   0.000  -0.000   0.000   0.000
  0.003   0.000   0.000   0.015   0.000   0.000   0.000  -1.705  -0.000   0.000  -0.000  -0.000   0.538   0.000   0.000   0.000
  0.000   0.005   0.000   0.000  -0.010   0.000  -0.000  -0.000  -2.225   0.000  -0.033  -0.000   0.000   0.952   0.000   0.051
  0.000   0.000   0.011   0.000   0.000  -0.071   0.000   0.000   0.000  -1.486   0.000   0.000   0.000   0.000   0.488   0.000
  0.000   0.004   0.000   0.000  -0.041  -0.000   0.000  -0.000  -0.033   0.000  -2.083   0.000   0.000   0.050  -0.000   0.780
  0.000   0.000  -0.000   0.000   0.000   0.000   0.725  -0.000  -0.000   0.000   0.000  -0.143  -0.000   0.000   0.000   0.000
 -0.003   0.000   0.000  -0.016  -0.000   0.000   0.000   0.538   0.000   0.000   0.000  -0.000   0.106   0.000   0.000  -0.000
  0.000  -0.006   0.000   0.000  -0.006   0.000  -0.000   0.000   0.952   0.000   0.050   0.000   0.000  -0.276   0.000  -0.060
  0.000   0.000  -0.011  -0.000   0.000   0.021   0.000   0.000   0.000   0.488  -0.000   0.000   0.000   0.000   0.082   0.000
  0.000  -0.004   0.000   0.000   0.018   0.000   0.000   0.000   0.051   0.000   0.780   0.000  -0.000  -0.060   0.000  -0.087
  0.000  -0.002   0.000   0.000  -0.016   0.000   0.000   0.000  -0.019  -0.000  -0.031   0.000   0.000   0.000   0.000   0.027
  0.000   0.000   0.000  -0.000  -0.000  -0.000   0.000   0.000  -0.006   0.000   0.004   0.000   0.000   0.002   0.000  -0.001


------------------------ aborting loop because EDIFF is reached ----------------------------------------





 total charge

# of ion       s       p       d       tot
------------------------------------------
    1        0.378   6.388   6.104  12.869
    2        0.372   6.377   6.102  12.851
    3        0.374   6.381   6.087  12.843
    4        0.380   6.388   6.093  12.862
    5        0.379   6.387   6.082  12.848
    6        0.374   6.381   6.089  12.844
    7        0.378   6.388   6.104  12.869
    8        0.372   6.377   6.102  12.851
    9        0.374   6.381   6.087  12.843
   10        0.821   0.817   8.062   9.700
   11        0.821   0.807   8.069   9.697
   12        0.807   0.816   8.070   9.693
--------------------------------------------------
tot          5.831  59.887  79.051 144.769



 magnetization (x)

# of ion       s       p       d       tot
------------------------------------------
    1       -0.011  -0.007  -2.111  -2.129
    2        0.001  -0.011   2.402   2.391
    3        0.007   0.002   2.278   2.288
    4       -0.015  -0.021  -2.135  -2.171
    5        0.013   0.021   2.232   2.266
    6       -0.000  -0.014   2.467   2.453
    7       -0.011  -0.007  -2.111  -2.129
    8        0.001  -0.011   2.402   2.391
    9        0.007   0.002   2.278   2.288
   10        0.006   0.010  -0.055  -0.038
   11       -0.009  -0.020   0.096   0.066
   12       -0.036  -0.094   0.363   0.233
--------------------------------------------------
tot         -0.047  -0.150   8.106   7.909
 
    FORLOC:  cpu time      0.0016: real time      0.0016
    FORNL :  cpu time      0.6665: real time      0.6704
    STRESS:  cpu time      4.0309: real time      4.0638
    FORCOR:  cpu time      0.0208: real time      0.0210
    OFIELD:  cpu time      0.0001: real time      0.0001

  FORCE on cell =-STRESS in cart. coord.  units (eV):
  Direction    XX          YY          ZZ          XY          YZ          ZX
  --------------------------------------------------------------------------------------
  Alpha Z  1198.52204  1198.52204  1198.52204
  Ewald   -6216.95160 -6216.95160 -6232.15611    -0.00000    -0.00000     0.00000
  Hartree  1793.58198  1793.58198  1779.63693    -0.00000    -0.00000    -0.00000
  E(xc)    -945.98557  -945.98557  -945.94607     0.00000    -0.00000    -0.00000
  Local    1236.95341  1236.95341  1270.74850    -0.00000     0.00000    -0.00000
  n-local  -196.92830  -210.02361  -202.96838    15.95841     0.15148     0.24206
  augment  1436.79669  1436.79669  1433.32019    -0.00000    -0.00000    -0.00000
  Kinetic  1724.38642  1703.46765  1712.21498     4.62680     0.06970     0.13714
  Fock        0.00000     0.00000     0.00000     0.00000     0.00000     0.00000
  -------------------------------------------------------------------------------------
  Total      13.36803    13.36803    13.37208     0.00000     0.00000     0.00000
  in kB     150.83070   150.83070   150.87637     0.00000     0.00000     0.00000
  external pressure =      150.85 kB  Pullay stress =        0.00 kB


 VOLUME and BASIS-vectors are now :
 -----------------------------------------------------------------------------
  energy-cutoff  :      520.00
  volume of cell :      142.00
      direct lattice vectors                 reciprocal lattice vectors
     3.606893287  0.000000000  0.000000000     0.277246905  0.000000000  0.000000000
     0.000000000  3.606893287  0.000000000     0.000000000  0.277246905  0.000000000
     0.000000000  0.000000000 10.914950166     0.000000000  0.000000000  0.091617459

  length of vectors
     3.606893287  3.606893287 10.914950166     0.277246905  0.277246905  0.091617459


 FORCES acting on ions:
    Electron-Ion                     Ewald-Force                    Non-Local-Force
 -----------------------------------------------------------------------------------------------
   -.532E-13 0.801E-12 -.686E+01   0.213E-13 0.109E-13 0.599E+01   -.650E-18 0.423E-18 0.865E+00
   -.490E-13 0.103E-11 -.249E+02   -.113E-13 0.158E-13 0.253E+02   -.905E-19 -.461E-18 -.424E+00
   -.502E-13 0.863E-12 0.338E+02   -.263E-13 0.167E-13 -.350E+02   -.274E-18 0.677E-18 0.118E+01
   0.107E-11 -.456E-11 0.564E+02   0.386E-13 -.193E-13 -.545E+02   -.738E-18 0.122E-18 -.197E+01
   0.106E-11 -.442E-11 -.165E+02   -.931E-13 0.126E-13 0.180E+02   0.222E-18 0.300E-18 -.146E+01
   0.106E-11 -.495E-11 -.259E+02   0.695E-13 -.161E-13 0.260E+02   0.298E-18 -.628E-19 -.122E+00
   0.105E-11 -.189E-12 -.686E+01   -.410E-14 -.890E-14 0.599E+01   -.382E-18 0.180E-18 0.865E+00
   0.105E-11 -.258E-12 -.249E+02   0.182E-13 -.458E-14 0.253E+02   -.143E-18 -.231E-18 -.424E+00
   0.105E-11 -.571E-13 0.338E+02   -.244E-14 0.996E-14 -.350E+02   0.810E-19 -.419E-18 0.118E+01
   -.455E-13 -.749E-13 0.183E+02   -.349E-13 -.114E-13 -.184E+02   -.915E-19 0.289E-18 0.132E+00
   -.400E-13 0.492E-13 -.289E+02   0.508E-13 -.115E-13 0.290E+02   0.937E-19 -.345E-18 -.724E-01
   -.403E-13 -.542E-13 -.734E+01   -.639E-13 -.226E-13 0.719E+01   0.213E-18 -.893E-19 0.150E+00
 -----------------------------------------------------------------------------------------------
   0.611E-11 -.119E-10 0.105E+00   -.376E-13 -.284E-13 -.675E-13   -.146E-17 0.383E-18 -.107E+00
 
 
 POSITION                                       TOTAL-FORCE (eV/Angst)
 -----------------------------------------------------------------------------------
      0.00000      1.80345      1.81701         0.000000      0.000000     -0.008729
      0.00000      1.80345      5.44943         0.000000      0.000000     -0.005698
      0.00000      1.80345      9.11066         0.000000     -0.000000      0.007687
      1.80345      1.80345      0.03789         0.000000     -0.000000      0.006035
      1.80345      1.80345      3.64480        -0.000000     -0.000000      0.009727
      1.80345      1.80345      7.26001        -0.000000      0.000000      0.001027
      1.80345      0.00000      1.81701         0.000000      0.000000     -0.008729
      1.80345      0.00000      5.44943        -0.000000      0.000000     -0.005698
      1.80345      0.00000      9.11066         0.000000      0.000000      0.007687
      0.00000      0.00000     10.90540         0.000000      0.000000     -0.000855
      0.00000      0.00000      3.60599         0.000000      0.000000     -0.000034
      0.00000      0.00000      7.28140         0.000000      0.000000     -0.002422
 -----------------------------------------------------------------------------------
    total drift:                                0.000000     -0.000000     -0.001726


--------------------------------------------------------------------------------------------------------



  FREE ENERGIE OF THE ION-ELECTRON SYSTEM (eV)
  ---------------------------------------------------
  free  energy   TOTEN  =       -92.83293246 eV

  energy  without entropy=      -92.84594306  energy(sigma->0) =      -92.83726933
 


--------------------------------------------------------------------------------------------------------


    POTLOK:  cpu time      0.0458: real time      0.0461


--------------------------------------------------------------------------------------------------------




--------------------------------------------------------------------------------------------------------


  
 reached required accuracy - stopping structural energy minimisation
     LOOP+:  cpu time    236.9910: real time    240.0156
    4ORBIT:  cpu time      0.0000: real time      0.0000



 total charge

# of ion       s       p       d       tot
------------------------------------------
    1        0.378   6.388   6.104  12.869
    2        0.372   6.377   6.102  12.851
    3        0.374   6.381   6.087  12.843
    4        0.380   6.388   6.093  12.862
    5        0.379   6.387   6.082  12.848
    6        0.374   6.381   6.089  12.844
    7        0.378   6.388   6.104  12.869
    8        0.372   6.377   6.102  12.851
    9        0.374   6.381   6.087  12.843
   10        0.821   0.817   8.062   9.700
   11        0.821   0.807   8.069   9.697
   12        0.807   0.816   8.070   9.693
--------------------------------------------------
tot          5.831  59.887  79.051 144.769



 magnetization (x)

# of ion       s       p       d       tot
------------------------------------------
    1       -0.011  -0.007  -2.111  -2.129
    2        0.001  -0.011   2.402   2.391
    3        0.007   0.002   2.278   2.288
    4       -0.015  -0.021  -2.135  -2.171
    5        0.013   0.021   2.232   2.266
    6       -0.000  -0.014   2.467   2.453
    7       -0.011  -0.007  -2.111  -2.129
    8        0.001  -0.011   2.402   2.391
    9        0.007   0.002   2.278   2.288
   10        0.006   0.010  -0.055  -0.038
   11       -0.009  -0.020   0.096   0.066
   12       -0.036  -0.094   0.363   0.233
--------------------------------------------------
tot         -0.047  -0.150   8.106   7.909
 

 total amount of memory used by VASP MPI-rank0   264608. kBytes
=======================================================================

   base      :      30000. kBytes
   nonl-proj :      94414. kBytes
   fftplans  :        888. kBytes
   grid      :       6813. kBytes
   one-center:        373. kBytes
   wavefun   :     132120. kBytes
 
  
  
 General timing and accounting informations for this job:
 ========================================================
  
                  Total CPU time used (sec):      255.573
                            User time (sec):      248.762
                          System time (sec):        6.811
                         Elapsed time (sec):      264.770
  
                   Maximum memory used (kb):     1156868.
                   Average memory used (kb):          N/A
  
                          Minor page faults:       177225
                          Major page faults:          168
                 Voluntary context switches:        11798
