       N       E                     dE             d eps       ncg     rms          ort
DAV:   1     0.177060196579E+04    0.17706E+04   -0.91670E+04 10752   0.199E+03
DAV:   2     0.590289840925E+01   -0.17647E+04   -0.16752E+04 10752   0.482E+02
DAV:   3    -0.103475808748E+03   -0.10938E+03   -0.10799E+03 10752   0.129E+02
DAV:   4    -0.105056770066E+03   -0.15810E+01   -0.15806E+01 10752   0.155E+01
DAV:   5    -0.105087114643E+03   -0.30345E-01   -0.30344E-01 10752   0.208E+00
SDA:   6    -0.494864560697E+02    0.55601E+02   -0.30344E-01 10752   0.566E+03 0.000E+00
CGA:   7    -0.649965618879E+02   -0.15510E+02   -0.11959E+02 10752   0.184E+03 0.153E+03
CGA:   8    -0.813684052181E+02   -0.16372E+02   -0.15309E+02 10752   0.256E+03 0.127E+02
CGA:   9    -0.870035673538E+02   -0.56352E+01   -0.58461E+01 10752   0.399E+02-0.241E+01
CGA:  10    -0.884418721606E+02   -0.14383E+01   -0.16499E+01 10752   0.422E+02-0.389E+01
CGA:  11    -0.895999005400E+02   -0.11580E+01   -0.10414E+01 10752   0.201E+02 0.458E+01
CGA:  12    -0.905499818455E+02   -0.95008E+00   -0.87715E+00 10752   0.301E+02 0.173E+01
CGA:  13    -0.919986919429E+02   -0.14487E+01   -0.12521E+01 10752   0.140E+02 0.511E+01
CGA:  14    -0.923030702402E+02   -0.30438E+00   -0.29804E+00 10752   0.293E+01 0.410E+00
CGA:  15    -0.925984463340E+02   -0.29538E+00   -0.29802E+00 10752   0.874E+01 0.523E-02
CGA:  16    -0.929036930233E+02   -0.30525E+00   -0.33405E+00 10752   0.475E+01-0.693E+00
CGA:  17    -0.931314062938E+02   -0.22771E+00   -0.23199E+00 10752   0.340E+01-0.628E-01
CGA:  18    -0.932038887631E+02   -0.72482E-01   -0.73496E-01 10752   0.435E+00-0.429E-01
CGA:  19    -0.932348376583E+02   -0.30949E-01   -0.30886E-01 10752   0.105E+01 0.217E-03
CGA:  20    -0.932839531840E+02   -0.49116E-01   -0.50263E-01 10752   0.437E+00-0.182E-01
CGA:  21    -0.933039387032E+02   -0.19986E-01   -0.20063E-01 10752   0.369E+00-0.180E-02
CGA:  22    -0.933149623643E+02   -0.11024E-01   -0.11373E-01 10752   0.878E-01-0.101E-01
CGA:  23    -0.933232664274E+02   -0.83041E-02   -0.83186E-02 10752   0.256E+00 0.320E-03
CGA:  24    -0.933347954147E+02   -0.11529E-01   -0.11654E-01 10752   0.802E-01-0.189E-02
CGA:  25    -0.933401669743E+02   -0.53716E-02   -0.53989E-02 10752   0.871E-01-0.583E-04
CGA:  26    -0.933435013344E+02   -0.33344E-02   -0.33913E-02 10752   0.523E-01-0.104E-02
CGA:  27    -0.933497855559E+02   -0.62842E-02   -0.62750E-02 10752   0.506E-01 0.328E-03
CGA:  28    -0.933513591407E+02   -0.15736E-02   -0.15725E-02 10752   0.245E-01 0.705E-05
CGA:  29    -0.933548262531E+02   -0.34671E-02   -0.34688E-02 10752   0.333E-01-0.471E-04
CGA:  30    -0.933561962917E+02   -0.13700E-02   -0.13789E-02 10752   0.198E-01-0.212E-03
CGA:  31    -0.933570155793E+02   -0.81929E-03   -0.81832E-03 10752   0.372E-02-0.263E-04
CGA:  32    -0.933574842334E+02   -0.46865E-03   -0.46911E-03 10752   0.135E-01-0.109E-04
CGA:  33    -0.933581713165E+02   -0.68708E-03   -0.68782E-03 10752   0.373E-02-0.138E-04
CGA:  34    -0.933584109893E+02   -0.23967E-03   -0.23950E-03 10752   0.209E-02-0.202E-05
CGA:  35    -0.933584819069E+02   -0.70918E-04   -0.70738E-04 10752   0.125E-02 0.145E-05
CGA:  36    -0.933587484769E+02   -0.26657E-03   -0.26828E-03 10752   0.251E-02-0.130E-04
SDA:  37    -0.933588260512E+02   -0.77574E-04   -0.77519E-04 10752   0.903E-03-0.713E-06
CGA:  38    -0.933588640793E+02   -0.38028E-04   -0.38284E-04 10752   0.539E-03 0.644E-05
CGA:  39    -0.933588919944E+02   -0.27915E-04   -0.28201E-04 10752   0.302E-03 0.953E-05
CGA:  40    -0.933589356015E+02   -0.43607E-04   -0.42659E-04 10752   0.167E-03 0.203E-04
CGA:  41    -0.933589454851E+02   -0.98836E-05   -0.99525E-05 10752   0.203E-03 0.288E-05
CGA:  42    -0.933589606850E+02   -0.15200E-04   -0.15179E-04 10752   0.106E-03 0.251E-07
CGA:  43    -0.933589742205E+02   -0.13536E-04   -0.13814E-04 10752   0.470E-04-0.581E-05
CGA:  44    -0.933589834457E+02   -0.92252E-05   -0.10357E-04 10752   0.189E-03-0.717E-05
CGA:  45    -0.933589888623E+02   -0.54166E-05   -0.51211E-05 10752   0.448E-04-0.349E-05
CGA:  46    -0.933589917618E+02   -0.28995E-05   -0.28422E-05 10752   0.498E-04-0.114E-05
CGA:  47    -0.933589937196E+02   -0.19578E-05   -0.19099E-05 10752   0.328E-04-0.250E-06
CGA:  48    -0.933589966342E+02   -0.29146E-05   -0.29127E-05 10752   0.250E-04-0.126E-06
CGA:  49    -0.933589972075E+02   -0.57332E-06   -0.56527E-06 10752   0.381E-05 0.524E-06
   1 F= -.93358997E+02 E0= -.93362280E+02  d E =-.933590E+02  mag=     8.3487
       N       E                     dE             d eps       ncg     rms          ort
SDA:   1    -0.933532849763E+02    0.57117E-02    0.00000E+00 10752   0.300E-01 0.000E+00
CGA:   2    -0.933544488023E+02   -0.11638E-02   -0.11654E-02 10752   0.224E-01-0.296E-04
CGA:   3    -0.933567100317E+02   -0.22612E-02   -0.22614E-02 10752   0.161E-01-0.798E-05
CGA:   4    -0.933582896331E+02   -0.15796E-02   -0.15795E-02 10752   0.567E-02 0.352E-05
CGA:   5    -0.933585173526E+02   -0.22772E-03   -0.22781E-03 10752   0.443E-02 0.544E-06
CGA:   6    -0.933589005770E+02   -0.38322E-03   -0.38322E-03 10752   0.210E-02 0.482E-05
CGA:   7    -0.933590577653E+02   -0.15719E-03   -0.15720E-03 10752   0.450E-03 0.118E-05
CGA:   8    -0.933590806718E+02   -0.22906E-04   -0.22905E-04 10752   0.570E-03-0.513E-07
CGA:   9    -0.933591512628E+02   -0.70591E-04   -0.70652E-04 10752   0.132E-03-0.149E-05
CGA:  10    -0.933591591490E+02   -0.78862E-05   -0.78829E-05 10752   0.142E-03-0.173E-06
CGA:  11    -0.933591671002E+02   -0.79512E-05   -0.79524E-05 10752   0.103E-03 0.378E-07
CGA:  12    -0.933591777597E+02   -0.10659E-04   -0.10659E-04 10752   0.233E-04 0.465E-09
CGA:  13    -0.933591795195E+02   -0.17597E-05   -0.17607E-05 10752   0.359E-04 0.240E-07
CGA:  14    -0.933591813596E+02   -0.18401E-05   -0.18357E-05 10752   0.109E-04-0.105E-06
CGA:  15    -0.933591823864E+02   -0.10269E-05   -0.10271E-05 10752   0.576E-05-0.475E-07
CGA:  16    -0.933591826658E+02   -0.27935E-06   -0.27736E-06 10752   0.621E-05-0.829E-07
   2 F= -.93359183E+02 E0= -.93362460E+02  d E =-.185458E-03  mag=     8.3438
       N       E                     dE             d eps       ncg     rms          ort
SDA:   1    -0.933566500831E+02    0.25323E-02    0.00000E+00 10752   0.840E-02 0.000E+00
CGA:   2    -0.933573306500E+02   -0.68057E-03   -0.68057E-03 10752   0.156E-01-0.323E-05
CGA:   3    -0.933582359810E+02   -0.90533E-03   -0.90547E-03 10752   0.742E-02-0.133E-05
CGA:   4    -0.933588281635E+02   -0.59218E-03   -0.59218E-03 10752   0.239E-02-0.734E-06
CGA:   5    -0.933589412308E+02   -0.11307E-03   -0.11311E-03 10752   0.239E-02 0.109E-05
CGA:   6    -0.933591327085E+02   -0.19148E-03   -0.19147E-03 10752   0.781E-03 0.334E-05
CGA:   7    -0.933591912142E+02   -0.58506E-04   -0.58508E-04 10752   0.161E-03 0.638E-06
CGA:   8    -0.933592092677E+02   -0.18053E-04   -0.18069E-04 10752   0.477E-03-0.425E-06
CGA:   9    -0.933592345802E+02   -0.25313E-04   -0.25300E-04 10752   0.534E-04-0.494E-06
CGA:  10    -0.933592387839E+02   -0.42036E-05   -0.42043E-05 10752   0.581E-04 0.800E-07
CGA:  11    -0.933592421156E+02   -0.33317E-05   -0.33314E-05 10752   0.619E-04 0.263E-07
CGA:  12    -0.933592469990E+02   -0.48834E-05   -0.48834E-05 10752   0.721E-05 0.326E-06
CGA:  13    -0.933592481127E+02   -0.11138E-05   -0.11270E-05 10752   0.903E-05-0.154E-06
CGA:  14    -0.933592485434E+02   -0.43069E-06   -0.42945E-06 10752   0.757E-05-0.426E-07
   3 F= -.93359249E+02 E0= -.93362520E+02  d E =-.251336E-03  mag=     8.3409
       N       E                     dE             d eps       ncg     rms          ort
SDA:   1    -0.933485915059E+02    0.10657E-01    0.00000E+00 10752   0.415E-01 0.000E+00
CGA:   2    -0.933509544719E+02   -0.23630E-02   -0.23621E-02 10752   0.517E-01-0.473E-05
CGA:   3    -0.933547169982E+02   -0.37625E-02   -0.37627E-02 10752   0.313E-01 0.134E-04
CGA:   4    -0.933575657162E+02   -0.28487E-02   -0.28485E-02 10752   0.895E-02 0.117E-04
CGA:   5    -0.933580376159E+02   -0.47190E-03   -0.47195E-03 10752   0.101E-01 0.246E-05
CGA:   6    -0.933586908310E+02   -0.65322E-03   -0.65331E-03 10752   0.393E-02 0.586E-05
CGA:   7    -0.933590009625E+02   -0.31013E-03   -0.31013E-03 10752   0.611E-03 0.178E-05
CGA:   8    -0.933590778361E+02   -0.76874E-04   -0.76950E-04 10752   0.196E-02-0.156E-05
CGA:   9    -0.933591728495E+02   -0.95013E-04   -0.94972E-04 10752   0.222E-03-0.120E-05
CGA:  10    -0.933591919641E+02   -0.19115E-04   -0.19111E-04 10752   0.231E-03 0.437E-06
CGA:  11    -0.933592049947E+02   -0.13031E-04   -0.13041E-04 10752   0.248E-03 0.485E-06
CGA:  12    -0.933592225123E+02   -0.17518E-04   -0.17523E-04 10752   0.389E-04 0.985E-06
CGA:  13    -0.933592282896E+02   -0.57773E-05   -0.57859E-05 10752   0.341E-04-0.941E-07
CGA:  14    -0.933592299589E+02   -0.16693E-05   -0.16660E-05 10752   0.297E-04-0.982E-07
CGA:  15    -0.933592314935E+02   -0.15346E-05   -0.15289E-05 10752   0.745E-05-0.200E-06
CGA:  16    -0.933592328673E+02   -0.13737E-05   -0.14613E-05 10752   0.760E-05-0.727E-06
CGA:  17    -0.933592330609E+02   -0.19362E-06   -0.19182E-06 10752   0.231E-05-0.164E-07
   4 F= -.93359233E+02 E0= -.93362493E+02  d E =-.235853E-03  mag=     8.3359
       N       E                     dE             d eps       ncg     rms          ort
SDA:   1    -0.933560845895E+02    0.31483E-02    0.00000E+00 10752   0.905E-02 0.000E+00
CGA:   2    -0.933573430555E+02   -0.12585E-02   -0.12583E-02 10752   0.177E-01 0.170E-05
CGA:   3    -0.933581123846E+02   -0.76933E-03   -0.76910E-03 10752   0.974E-02 0.247E-05
CGA:   4    -0.933587800363E+02   -0.66765E-03   -0.66761E-03 10752   0.210E-02-0.169E-05
CGA:   5    -0.933589691741E+02   -0.18914E-03   -0.18916E-03 10752   0.382E-02-0.245E-05
CGA:   6    -0.933591352231E+02   -0.16605E-03   -0.16597E-03 10752   0.854E-03-0.129E-05
CGA:   7    -0.933591950969E+02   -0.59874E-04   -0.59871E-04 10752   0.189E-03-0.353E-06
CGA:   8    -0.933592449684E+02   -0.49872E-04   -0.49560E-04 10752   0.140E-03 0.171E-05
CGA:   9    -0.933592493204E+02   -0.43520E-05   -0.43454E-05 10752   0.645E-04-0.134E-06
CGA:  10    -0.933592570845E+02   -0.77640E-05   -0.77818E-05 10752   0.638E-04-0.559E-06
CGA:  11    -0.933592625276E+02   -0.54431E-05   -0.54430E-05 10752   0.343E-04-0.214E-06
CGA:  12    -0.933592636603E+02   -0.11328E-05   -0.11313E-05 10752   0.141E-04-0.248E-07
CGA:  13    -0.933592653462E+02   -0.16859E-05   -0.16781E-05 10752   0.719E-05 0.196E-06
CGA:  14    -0.933592659641E+02   -0.61789E-06   -0.61826E-06 10752   0.553E-05 0.177E-06
   5 F= -.93359266E+02 E0= -.93362528E+02  d E =-.268757E-03  mag=     8.3378
       N       E                     dE             d eps       ncg     rms          ort
SDA:   1    -0.933590893496E+02    0.17600E-03    0.00000E+00 10752   0.423E-02 0.000E+00
CGA:   2    -0.933591772789E+02   -0.87929E-04   -0.87953E-04 10752   0.373E-03-0.276E-05
CGA:   3    -0.933592119142E+02   -0.34635E-04   -0.34648E-04 10752   0.220E-03-0.106E-05
CGA:   4    -0.933592451630E+02   -0.33249E-04   -0.33404E-04 10752   0.333E-03-0.219E-05
CGA:   5    -0.933592547205E+02   -0.95575E-05   -0.95125E-05 10752   0.487E-04-0.836E-06
CGA:   6    -0.933592612121E+02   -0.64916E-05   -0.64939E-05 10752   0.369E-04-0.294E-07
CGA:   7    -0.933592640277E+02   -0.28156E-05   -0.28163E-05 10752   0.103E-04 0.122E-06
CGA:   8    -0.933592644528E+02   -0.42511E-06   -0.42802E-06 10752   0.952E-05 0.750E-07
CGA:   9    -0.933592655997E+02   -0.11470E-05   -0.11316E-05 10752   0.219E-05 0.458E-06
CGA:  10    -0.933592658208E+02   -0.22104E-06   -0.22296E-06 10752   0.514E-05-0.754E-07
   6 F= -.93359266E+02 E0= -.93362530E+02  d E =-.268613E-03  mag=     8.3383
       N       E                     dE             d eps       ncg     rms          ort
SDA:   1    -0.933569447002E+02    0.23209E-02    0.00000E+00 10752   0.104E-01 0.000E+00
CGA:   2    -0.933573329150E+02   -0.38821E-03   -0.38847E-03 10752   0.804E-02-0.708E-05
CGA:   3    -0.933584965564E+02   -0.11636E-02   -0.11636E-02 10752   0.558E-02 0.424E-06
CGA:   4    -0.933588554618E+02   -0.35891E-03   -0.35891E-03 10752   0.325E-02 0.514E-06
CGA:   5    -0.933589800118E+02   -0.12455E-03   -0.12460E-03 10752   0.191E-02-0.269E-08
CGA:   6    -0.933592215227E+02   -0.24151E-03   -0.24141E-03 10752   0.232E-03 0.235E-05
CGA:   7    -0.933592530138E+02   -0.31491E-04   -0.31534E-04 10752   0.656E-03-0.859E-06
CGA:   8    -0.933592809778E+02   -0.27964E-04   -0.27940E-04 10752   0.156E-03-0.515E-06
CGA:   9    -0.933592933600E+02   -0.12382E-04   -0.12381E-04 10752   0.729E-04 0.360E-07
CGA:  10    -0.933592981283E+02   -0.47683E-05   -0.47691E-05 10752   0.110E-03-0.270E-07
CGA:  11    -0.933593048922E+02   -0.67639E-05   -0.67670E-05 10752   0.209E-04 0.175E-06
CGA:  12    -0.933593072498E+02   -0.23576E-05   -0.23560E-05 10752   0.132E-04 0.800E-07
CGA:  13    -0.933593085810E+02   -0.13313E-05   -0.13294E-05 10752   0.113E-04 0.833E-07
CGA:  14    -0.933593088899E+02   -0.30887E-06   -0.30910E-06 10752   0.186E-05-0.266E-09
   7 F= -.93359309E+02 E0= -.93362579E+02  d E =-.430691E-04  mag=     8.3413
       N       E                     dE             d eps       ncg     rms          ort
SDA:   1    -0.933583690957E+02    0.93949E-03    0.00000E+00 10752   0.951E-02 0.000E+00
CGA:   2    -0.933585969517E+02   -0.22786E-03   -0.22803E-03 10752   0.198E-02-0.793E-05
CGA:   3    -0.933590031949E+02   -0.40624E-03   -0.40617E-03 10752   0.267E-02 0.499E-06
CGA:   4    -0.933591324502E+02   -0.12926E-03   -0.12926E-03 10752   0.167E-02 0.450E-06
CGA:   5    -0.933592001544E+02   -0.67704E-04   -0.67715E-04 10752   0.507E-03-0.276E-06
CGA:   6    -0.933592887160E+02   -0.88562E-04   -0.88452E-04 10752   0.967E-04 0.126E-05
CGA:   7    -0.933592962861E+02   -0.75701E-05   -0.75667E-05 10752   0.171E-03-0.292E-06
CGA:   8    -0.933593064009E+02   -0.10115E-04   -0.10107E-04 10752   0.846E-04-0.211E-06
CGA:   9    -0.933593133577E+02   -0.69568E-05   -0.69555E-05 10752   0.285E-04-0.187E-06
CGA:  10    -0.933593146616E+02   -0.13040E-05   -0.13027E-05 10752   0.276E-04-0.454E-07
CGA:  11    -0.933593170684E+02   -0.24067E-05   -0.24066E-05 10752   0.130E-04 0.368E-07
CGA:  12    -0.933593181833E+02   -0.11150E-05   -0.11149E-05 10752   0.363E-05 0.135E-06
CGA:  13    -0.933593186634E+02   -0.48005E-06   -0.47656E-06 10752   0.600E-05 0.405E-07
   8 F= -.93359319E+02 E0= -.93362592E+02  d E =-.528426E-04  mag=     8.3433
       N       E                     dE             d eps       ncg     rms          ort
SDA:   1    -0.933560383611E+02    0.32798E-02    0.00000E+00 10752   0.111E-01 0.000E+00
CGA:   2    -0.933565929575E+02   -0.55460E-03   -0.55487E-03 10752   0.143E-01-0.442E-05
CGA:   3    -0.933583490689E+02   -0.17561E-02   -0.17562E-02 10752   0.476E-02-0.722E-06
CGA:   4    -0.933586927534E+02   -0.34368E-03   -0.34371E-03 10752   0.481E-02 0.551E-06
CGA:   5    -0.933589127270E+02   -0.21997E-03   -0.22002E-03 10752   0.315E-02 0.379E-06
CGA:   6    -0.933591659823E+02   -0.25326E-03   -0.25326E-03 10752   0.407E-03 0.245E-05
CGA:   7    -0.933592221277E+02   -0.56145E-04   -0.56178E-04 10752   0.510E-03-0.578E-06
CGA:   8    -0.933592507099E+02   -0.28582E-04   -0.28573E-04 10752   0.506E-03-0.263E-06
CGA:   9    -0.933592773645E+02   -0.26655E-04   -0.26638E-04 10752   0.791E-04-0.570E-06
CGA:  10    -0.933592878866E+02   -0.10522E-04   -0.10528E-04 10752   0.179E-03-0.940E-07
CGA:  11    -0.933592944581E+02   -0.65715E-05   -0.65787E-05 10752   0.438E-04 0.156E-06
CGA:  12    -0.933592978124E+02   -0.33543E-05   -0.33544E-05 10752   0.183E-04 0.110E-06
CGA:  13    -0.933593005967E+02   -0.27843E-05   -0.27807E-05 10752   0.549E-05 0.424E-07
CGA:  14    -0.933593008119E+02   -0.21519E-06   -0.21381E-06 10752   0.448E-05-0.147E-07
   9 F= -.93359301E+02 E0= -.93362580E+02  d E =-.349911E-04  mag=     8.3469
       N       E                     dE             d eps       ncg     rms          ort
SDA:   1    -0.933580884935E+02    0.12121E-02    0.00000E+00 10752   0.701E-02 0.000E+00
CGA:   2    -0.933582914458E+02   -0.20295E-03   -0.20285E-03 10752   0.342E-02 0.354E-05
CGA:   3    -0.933589400897E+02   -0.64864E-03   -0.64860E-03 10752   0.231E-02 0.262E-06
CGA:   4    -0.933590921658E+02   -0.15208E-03   -0.15204E-03 10752   0.158E-02-0.149E-05
CGA:   5    -0.933591620741E+02   -0.69908E-04   -0.69879E-04 10752   0.104E-02-0.290E-06
CGA:   6    -0.933592684163E+02   -0.10634E-03   -0.10635E-03 10752   0.197E-03-0.788E-06
CGA:   7    -0.933592860682E+02   -0.17652E-04   -0.17651E-04 10752   0.175E-03 0.245E-06
CGA:   8    -0.933592944947E+02   -0.84264E-05   -0.84355E-05 10752   0.172E-03 0.226E-06
CGA:   9    -0.933593093382E+02   -0.14844E-04   -0.14842E-04 10752   0.288E-04 0.462E-06
CGA:  10    -0.933593123684E+02   -0.30301E-05   -0.30329E-05 10752   0.576E-04-0.963E-07
CGA:  11    -0.933593150617E+02   -0.26933E-05   -0.26830E-05 10752   0.206E-04-0.235E-06
CGA:  12    -0.933593165100E+02   -0.14484E-05   -0.14493E-05 10752   0.575E-05 0.364E-07
CGA:  13    -0.933593175327E+02   -0.10227E-05   -0.10197E-05 10752   0.274E-05 0.206E-07
CGA:  14    -0.933593176127E+02   -0.80010E-07   -0.81223E-07 10752   0.120E-05 0.253E-07
  10 F= -.93359318E+02 E0= -.93362592E+02  d E =-.517919E-04  mag=     8.3452
       N       E                     dE             d eps       ncg     rms          ort
SDA:   1    -0.933592028221E+02    0.11471E-03    0.00000E+00 10752   0.123E-02 0.000E+00
CGA:   2    -0.933592337526E+02   -0.30930E-04   -0.30943E-04 10752   0.281E-03 0.609E-06
CGA:   3    -0.933592666601E+02   -0.32908E-04   -0.32902E-04 10752   0.304E-03 0.202E-06
CGA:   4    -0.933592965556E+02   -0.29895E-04   -0.29902E-04 10752   0.282E-03-0.589E-06
CGA:   5    -0.933593048428E+02   -0.82872E-05   -0.82790E-05 10752   0.620E-04-0.105E-06
CGA:   6    -0.933593127443E+02   -0.79015E-05   -0.79102E-05 10752   0.422E-04-0.244E-06
CGA:   7    -0.933593167977E+02   -0.40535E-05   -0.40545E-05 10752   0.784E-05-0.438E-07
CGA:   8    -0.933593173673E+02   -0.56953E-06   -0.56957E-06 10752   0.158E-04 0.340E-07
CGA:   9    -0.933593186265E+02   -0.12593E-05   -0.12608E-05 10752   0.399E-05 0.216E-06
CGA:  10    -0.933593189001E+02   -0.27352E-06   -0.27308E-06 10752   0.280E-05-0.196E-08
  11 F= -.93359319E+02 E0= -.93362593E+02  d E =-.530793E-04  mag=     8.3444
       N       E                     dE             d eps       ncg     rms          ort
SDA:   1    -0.933576195965E+02    0.16990E-02    0.00000E+00 10752   0.111E-01 0.000E+00
CGA:   2    -0.933579544647E+02   -0.33487E-03   -0.33504E-03 10752   0.484E-02-0.813E-05
CGA:   3    -0.933586404231E+02   -0.68596E-03   -0.68604E-03 10752   0.486E-02-0.157E-05
CGA:   4    -0.933590655420E+02   -0.42512E-03   -0.42511E-03 10752   0.101E-02 0.846E-06
CGA:   5    -0.933592159062E+02   -0.15036E-03   -0.15018E-03 10752   0.161E-02 0.273E-05
CGA:   6    -0.933592708407E+02   -0.54935E-04   -0.54965E-04 10752   0.442E-03 0.127E-06
CGA:   7    -0.933593014494E+02   -0.30609E-04   -0.30608E-04 10752   0.120E-03-0.114E-06
CGA:   8    -0.933593263027E+02   -0.24853E-04   -0.25091E-04 10752   0.196E-03-0.191E-05
CGA:   9    -0.933593321019E+02   -0.57992E-05   -0.57875E-05 10752   0.569E-04-0.202E-06
CGA:  10    -0.933593361449E+02   -0.40430E-05   -0.40487E-05 10752   0.316E-04 0.354E-06
CGA:  11    -0.933593401959E+02   -0.40510E-05   -0.40325E-05 10752   0.394E-04 0.487E-06
CGA:  12    -0.933593413719E+02   -0.11760E-05   -0.11878E-05 10752   0.697E-05 0.210E-06
CGA:  13    -0.933593426522E+02   -0.12803E-05   -0.12742E-05 10752   0.329E-05 0.765E-07
CGA:  14    -0.933593427701E+02   -0.11788E-06   -0.11685E-06 10752   0.210E-05-0.229E-07
  12 F= -.93359343E+02 E0= -.93362615E+02  d E =-.238700E-04  mag=     8.3494
       N       E                     dE             d eps       ncg     rms          ort
SDA:   1    -0.933447517539E+02    0.14591E-01    0.00000E+00 10752   0.619E-01 0.000E+00
CGA:   2    -0.933471460354E+02   -0.23943E-02   -0.23991E-02 10752   0.542E-01-0.896E-04
CGA:   3    -0.933543025201E+02   -0.71565E-02   -0.71576E-02 10752   0.312E-01-0.239E-04
CGA:   4    -0.933563941207E+02   -0.20916E-02   -0.20917E-02 10752   0.254E-01 0.345E-05
CGA:   5    -0.933573613350E+02   -0.96721E-03   -0.96762E-03 10752   0.981E-02-0.329E-05
CGA:   6    -0.933586689211E+02   -0.13076E-02   -0.13072E-02 10752   0.319E-02 0.803E-05
CGA:   7    -0.933588989717E+02   -0.23005E-03   -0.23007E-03 10752   0.165E-02-0.499E-07
CGA:   8    -0.933589943588E+02   -0.95387E-04   -0.95350E-04 10752   0.230E-02-0.115E-05
CGA:   9    -0.933591915428E+02   -0.19718E-03   -0.19719E-03 10752   0.376E-03-0.359E-05
CGA:  10    -0.933592209584E+02   -0.29416E-04   -0.29417E-04 10752   0.705E-03 0.329E-07
CGA:  11    -0.933592624656E+02   -0.41507E-04   -0.41534E-04 10752   0.205E-03 0.103E-05
CGA:  12    -0.933592793193E+02   -0.16854E-04   -0.16853E-04 10752   0.793E-04 0.315E-06
CGA:  13    -0.933592895434E+02   -0.10224E-04   -0.10198E-04 10752   0.992E-04 0.597E-06
CGA:  14    -0.933592925633E+02   -0.30199E-05   -0.30209E-05 10752   0.217E-04 0.411E-07
CGA:  15    -0.933592945027E+02   -0.19394E-05   -0.19392E-05 10752   0.129E-04-0.971E-07
CGA:  16    -0.933592955139E+02   -0.10112E-05   -0.10116E-05 10752   0.220E-04-0.307E-07
CGA:  17    -0.933592965994E+02   -0.10856E-05   -0.10824E-05 10752   0.204E-05-0.663E-07
CGA:  18    -0.933592970537E+02   -0.45426E-06   -0.45494E-06 10752   0.476E-05-0.477E-08
  13 F= -.93359297E+02 E0= -.93362566E+02  d E =0.218464E-04  mag=     8.3654
       N       E                     dE             d eps       ncg     rms          ort
SDA:   1    -0.933533254260E+02    0.59712E-02    0.00000E+00 10752   0.319E-01 0.000E+00
CGA:   2    -0.933543031667E+02   -0.97774E-03   -0.97632E-03 10752   0.178E-01 0.339E-04
CGA:   3    -0.933576127613E+02   -0.33096E-02   -0.33095E-02 10752   0.989E-02 0.218E-06
CGA:   4    -0.933581733460E+02   -0.56058E-03   -0.56062E-03 10752   0.905E-02-0.276E-05
CGA:   5    -0.933586372693E+02   -0.46392E-03   -0.46385E-03 10752   0.455E-02-0.131E-05
CGA:   6    -0.933591106194E+02   -0.47335E-03   -0.47342E-03 10752   0.888E-03-0.370E-05
CGA:   7    -0.933591867498E+02   -0.76130E-04   -0.76130E-04 10752   0.978E-03 0.156E-05
CGA:   8    -0.933592325056E+02   -0.45756E-04   -0.45803E-04 10752   0.783E-03 0.108E-05
CGA:   9    -0.933593049424E+02   -0.72437E-04   -0.72423E-04 10752   0.154E-03 0.148E-05
CGA:  10    -0.933593150954E+02   -0.10153E-04   -0.10154E-04 10752   0.251E-03 0.788E-07
CGA:  11    -0.933593337251E+02   -0.18630E-04   -0.18624E-04 10752   0.802E-04-0.562E-06
CGA:  12    -0.933593399672E+02   -0.62421E-05   -0.62402E-05 10752   0.316E-04-0.269E-06
CGA:  13    -0.933593437093E+02   -0.37421E-05   -0.37488E-05 10752   0.499E-04-0.171E-06
CGA:  14    -0.933593452060E+02   -0.14967E-05   -0.14978E-05 10752   0.539E-05 0.340E-07
CGA:  15    -0.933593460276E+02   -0.82158E-06   -0.81721E-06 10752   0.905E-05 0.109E-06
  14 F= -.93359346E+02 E0= -.93362620E+02  d E =-.271275E-04  mag=     8.3570
