       N       E                     dE             d eps       ncg     rms          rms(c)
DAV:   1     0.176695642154E+04    0.17670E+04   -0.84617E+04 43040   0.180E+03
DAV:   2     0.546829398702E+01   -0.17615E+04   -0.16724E+04 43008   0.481E+02
DAV:   3    -0.103531587159E+03   -0.10900E+03   -0.10763E+03 50656   0.129E+02
DAV:   4    -0.105104421782E+03   -0.15728E+01   -0.15725E+01 45824   0.155E+01
DAV:   5    -0.105134645032E+03   -0.30223E-01   -0.30222E-01 52992   0.208E+00    0.389E+01
DAV:   6    -0.113077307160E+03   -0.79427E+01   -0.17113E+02 51808   0.665E+01    0.679E+01
DAV:   7    -0.112526401990E+03    0.55091E+00   -0.45763E+02 53024   0.587E+01    0.630E+01
DAV:   8    -0.983941163155E+02    0.14132E+02   -0.13196E+02 51744   0.453E+01    0.364E+01
DAV:   9    -0.104130611096E+03   -0.57365E+01   -0.19986E+02 51456   0.354E+01    0.521E+01
DAV:  10    -0.966938660887E+02    0.74367E+01   -0.99166E+01 52512   0.255E+01    0.343E+01
DAV:  11    -0.917355985734E+02    0.49583E+01   -0.31613E+01 51648   0.177E+01    0.128E+01
DAV:  12    -0.928792736429E+02   -0.11437E+01   -0.86588E+00 51968   0.878E+00    0.145E+01
DAV:  13    -0.924678728776E+02    0.41140E+00   -0.42315E+00 50976   0.625E+00    0.939E+00
DAV:  14    -0.927006252983E+02   -0.23275E+00   -0.45112E-01 52480   0.247E+00    0.906E+00
DAV:  15    -0.929424007615E+02   -0.24178E+00   -0.57370E-01 52416   0.377E+00    0.799E+00
DAV:  16    -0.931126432594E+02   -0.17024E+00   -0.15268E+00 51328   0.508E+00    0.790E+00
DAV:  17    -0.933033643584E+02   -0.19072E+00   -0.13342E+00 52384   0.463E+00    0.502E+00
DAV:  18    -0.933674282789E+02   -0.64064E-01   -0.35956E-01 51616   0.260E+00    0.321E+00
DAV:  19    -0.933640087545E+02    0.34195E-02   -0.12401E-01 51168   0.159E+00    0.217E+00
DAV:  20    -0.933552240663E+02    0.87847E-02   -0.65920E-02 53024   0.103E+00    0.118E+00
DAV:  21    -0.933595949642E+02   -0.43709E-02   -0.29564E-02 52032   0.574E-01    0.597E-01
DAV:  22    -0.933615500806E+02   -0.19551E-02   -0.41916E-03 52512   0.304E-01    0.354E-01
DAV:  23    -0.933620214610E+02   -0.47138E-03   -0.17302E-03 55744   0.188E-01    0.161E-01
DAV:  24    -0.933621602509E+02   -0.13879E-03   -0.10284E-03 53760   0.170E-01    0.121E-01
DAV:  25    -0.933621911373E+02   -0.30886E-04   -0.21115E-04 49920   0.899E-02    0.857E-02
DAV:  26    -0.933621651807E+02    0.25957E-04   -0.72225E-05 52032   0.567E-02    0.359E-02
DAV:  27    -0.933621677131E+02   -0.25325E-05   -0.33041E-05 51040   0.214E-02    0.217E-02
DAV:  28    -0.933621651961E+02    0.25170E-05   -0.83268E-06 43168   0.113E-02    0.134E-02
DAV:  29    -0.933621554112E+02    0.97849E-05   -0.39468E-06 33824   0.968E-03    0.587E-03
DAV:  30    -0.933621523485E+02    0.30627E-05   -0.78892E-07 25440   0.299E-03    0.580E-03
DAV:  31    -0.933621513377E+02    0.10108E-05   -0.31334E-07 25632   0.339E-03    0.374E-03
DAV:  32    -0.933621506615E+02    0.67624E-06   -0.24738E-07 24800   0.262E-03
   1 F= -.93362151E+02 E0= -.93362151E+02  d E =0.000000E+00  mag=     8.2954
