       N       E                     dE             d eps       ncg     rms          ort
DAV:   1     0.176914301079E+04    0.17691E+04   -0.91678E+04 10752   0.199E+03
DAV:   2     0.568463254672E+01   -0.17635E+04   -0.16744E+04 10752   0.482E+02
DAV:   3    -0.103520451347E+03   -0.10921E+03   -0.10783E+03 10752   0.129E+02
DAV:   4    -0.105103031107E+03   -0.15826E+01   -0.15823E+01 10752   0.155E+01
DAV:   5    -0.105133434295E+03   -0.30403E-01   -0.30402E-01 10752   0.208E+00
SDA:   6    -0.495973675649E+02    0.55536E+02   -0.30402E-01 10752   0.552E+03 0.000E+00
CGA:   7    -0.649013007732E+02   -0.15304E+02   -0.11834E+02 10752   0.188E+03 0.148E+03
CGA:   8    -0.818775572295E+02   -0.16976E+02   -0.15919E+02 10752   0.238E+03 0.122E+02
CGA:   9    -0.869836842358E+02   -0.51061E+01   -0.52217E+01 10752   0.387E+02 0.124E+01
CGA:  10    -0.885008903095E+02   -0.15172E+01   -0.17121E+01 10752   0.406E+02-0.333E+01
CGA:  11    -0.895828476782E+02   -0.10820E+01   -0.96960E+00 10752   0.194E+02 0.464E+01
CGA:  12    -0.905843388291E+02   -0.10015E+01   -0.92707E+00 10752   0.324E+02 0.154E+01
CGA:  13    -0.919311333205E+02   -0.13468E+01   -0.10875E+01 10752   0.143E+02 0.839E+01
CGA:  14    -0.922621156613E+02   -0.33098E+00   -0.31754E+00 10752   0.280E+01 0.809E+00
CGA:  15    -0.925794117381E+02   -0.31730E+00   -0.31937E+00 10752   0.906E+01 0.126E-01
CGA:  16    -0.928924844326E+02   -0.31307E+00   -0.33747E+00 10752   0.476E+01-0.582E+00
CGA:  17    -0.931180795839E+02   -0.22560E+00   -0.23036E+00 10752   0.335E+01-0.732E-01
CGA:  18    -0.931889368590E+02   -0.70857E-01   -0.72000E-01 10752   0.472E+00-0.478E-01
CGA:  19    -0.932228947346E+02   -0.33958E-01   -0.33869E-01 10752   0.115E+01 0.367E-03
CGA:  20    -0.932733133978E+02   -0.50419E-01   -0.51386E-01 10752   0.453E+00-0.172E-01
CGA:  21    -0.932940901179E+02   -0.20777E-01   -0.20855E-01 10752   0.412E+00-0.180E-02
CGA:  22    -0.933068051208E+02   -0.12715E-01   -0.13164E-01 10752   0.114E+00-0.125E-01
CGA:  23    -0.933169268142E+02   -0.10122E-01   -0.10154E-01 10752   0.300E+00 0.306E-03
CGA:  24    -0.933293550206E+02   -0.12428E-01   -0.12619E-01 10752   0.829E-01-0.363E-02
CGA:  25    -0.933356401171E+02   -0.62851E-02   -0.63090E-02 10752   0.126E+00 0.713E-04
CGA:  26    -0.933409506842E+02   -0.53106E-02   -0.54335E-02 10752   0.757E-01-0.184E-02
CGA:  27    -0.933480759354E+02   -0.71253E-02   -0.71316E-02 10752   0.508E-01 0.408E-03
CGA:  28    -0.933497361754E+02   -0.16602E-02   -0.16617E-02 10752   0.296E-01-0.226E-04
CGA:  29    -0.933547754450E+02   -0.50393E-02   -0.50474E-02 10752   0.376E-01-0.115E-03
CGA:  30    -0.933561057866E+02   -0.13303E-02   -0.13393E-02 10752   0.177E-01-0.274E-03
CGA:  31    -0.933569138592E+02   -0.80807E-03   -0.80748E-03 10752   0.488E-02-0.267E-04
CGA:  32    -0.933576349224E+02   -0.72106E-03   -0.72128E-03 10752   0.167E-01-0.214E-05
CGA:  33    -0.933582968259E+02   -0.66190E-03   -0.66345E-03 10752   0.388E-02-0.208E-04
CGA:  34    -0.933585988728E+02   -0.30205E-03   -0.30193E-03 10752   0.240E-02-0.247E-05
CGA:  35    -0.933587131424E+02   -0.11427E-03   -0.11395E-03 10752   0.276E-02-0.889E-06
CGA:  36    -0.933589954619E+02   -0.28232E-03   -0.28247E-03 10752   0.132E-02-0.144E-04
SDA:  37    -0.933590728697E+02   -0.77408E-04   -0.77410E-04 10752   0.189E-02 0.236E-05
CGA:  38    -0.933591275416E+02   -0.54672E-04   -0.54822E-04 10752   0.746E-03 0.633E-05
CGA:  39    -0.933592186909E+02   -0.91149E-04   -0.90640E-04 10752   0.289E-03 0.170E-04
CGA:  40    -0.933592466133E+02   -0.27922E-04   -0.27903E-04 10752   0.513E-03 0.627E-05
CGA:  41    -0.933592743402E+02   -0.27727E-04   -0.27908E-04 10752   0.367E-03 0.629E-05
CGA:  42    -0.933593094568E+02   -0.35117E-04   -0.35093E-04 10752   0.612E-04 0.520E-05
CGA:  43    -0.933593196349E+02   -0.10178E-04   -0.10410E-04 10752   0.129E-03-0.205E-05
CGA:  44    -0.933593309663E+02   -0.11331E-04   -0.11320E-04 10752   0.282E-03-0.428E-05
CGA:  45    -0.933593484263E+02   -0.17460E-04   -0.17169E-04 10752   0.203E-04-0.887E-05
CGA:  46    -0.933593517424E+02   -0.33161E-05   -0.37052E-05 10752   0.473E-04-0.327E-05
CGA:  47    -0.933593536541E+02   -0.19118E-05   -0.18301E-05 10752   0.323E-04-0.101E-05
CGA:  48    -0.933593553722E+02   -0.17181E-05   -0.17026E-05 10752   0.112E-04 0.246E-06
CGA:  49    -0.933593563739E+02   -0.10017E-05   -0.10063E-05 10752   0.167E-04 0.227E-05
CGA:  50    -0.933593570897E+02   -0.71578E-06   -0.80053E-06 10752   0.317E-05 0.214E-05
   1 F= -.93359357E+02 E0= -.93362631E+02  d E =-.933594E+02  mag=     8.3588
       N       E                     dE             d eps       ncg     rms          ort
SDA:   1    -0.933587508237E+02    0.60555E-03    0.00000E+00 10752   0.545E-02 0.000E+00
CGA:   2    -0.933588905487E+02   -0.13973E-03   -0.13982E-03 10752   0.139E-02-0.415E-05
CGA:   3    -0.933590904927E+02   -0.19994E-03   -0.19980E-03 10752   0.172E-02 0.248E-05
CGA:   4    -0.933592530402E+02   -0.16255E-03   -0.16253E-03 10752   0.801E-03 0.358E-05
CGA:   5    -0.933592786486E+02   -0.25608E-04   -0.25643E-04 10752   0.397E-03 0.453E-06
CGA:   6    -0.933593369727E+02   -0.58324E-04   -0.58227E-04 10752   0.146E-03 0.158E-05
CGA:   7    -0.933593507291E+02   -0.13756E-04   -0.13761E-04 10752   0.654E-04-0.868E-06
CGA:   8    -0.933593568050E+02   -0.60760E-05   -0.60786E-05 10752   0.148E-03-0.764E-06
CGA:   9    -0.933593637480E+02   -0.69429E-05   -0.69049E-05 10752   0.193E-04-0.910E-06
CGA:  10    -0.933593666171E+02   -0.28691E-05   -0.28594E-05 10752   0.179E-04 0.156E-06
CGA:  11    -0.933593680751E+02   -0.14580E-05   -0.14618E-05 10752   0.480E-05 0.356E-06
CGA:  12    -0.933593683109E+02   -0.23577E-06   -0.23875E-06 10752   0.552E-05 0.716E-07
   2 F= -.93359368E+02 E0= -.93362645E+02  d E =-.112212E-04  mag=     8.3556
