 vasp.6.4.3 19Mar24 (build Mar 26 2024 14:05:37) complex                        
  
 executed on             LinuxIFC date 2024.12.16  23:16:32
 running  128 mpi-ranks, on    1 nodes
 distrk:  each k-point on   32 cores,    4 groups
 distr:  one band on NCORE=   1 cores,   32 groups


--------------------------------------------------------------------------------------------------------


 INCAR:
   ALGO = Normal
   EDIFF = 1e-06
   EDIFFG = -0.01
   ENCUT = 520
   GGA = Pe
   IBRION = -1
   ISIF = 4
   ISMEAR = -5
   ISPIN = 2
   KPAR = 4
   LCHARG = True
   LORBIT = 11
   LREAL = False
   LWAVE = False
   MAGMOM = 1*-2.482 1*2.6 1*2.566 1*-2.545 1*2.547 1*2.732 1*-2.482 1*2.6 1*2.566 1*-0.046 1*0.062 1*0.272
   NELM = 200
   NSW = 0
   PREC = Accurate
   SIGMA = 0.2

 POTCAR:    PAW_PBE Fe_pv 02Aug2007               
 POTCAR:    PAW_PBE Pt 04Feb2005                  
 -----------------------------------------------------------------------------
|                                                                             |
|           W    W    AA    RRRRR   N    N  II  N    N   GGGG   !!!           |
|           W    W   A  A   R    R  NN   N  II  NN   N  G    G  !!!           |
|           W    W  A    A  R    R  N N  N  II  N N  N  G       !!!           |
|           W WW W  AAAAAA  RRRRR   N  N N  II  N  N N  G  GGG   !            |
|           WW  WW  A    A  R   R   N   NN  II  N   NN  G    G                |
|           W    W  A    A  R    R  N    N  II  N    N   GGGG   !!!           |
|                                                                             |
|     For optimal performance we recommend to set                             |
|       NCORE = 2 up to number-of-cores-per-socket                            |
|     NCORE specifies how many cores store one orbital (NPAR=cpu/NCORE).      |
|     This setting can greatly improve the performance of VASP for DFT.       |
|     The default, NCORE=1 might be grossly inefficient on modern             |
|     multi-core architectures or massively parallel machines. Do your        |
|     own testing! More info at https://www.vasp.at/wiki/index.php/NCORE      |
|     Unfortunately you need to use the default for GW and RPA                |
|     calculations (for HF NCORE is supported but not extensively tested      |
|     yet).                                                                   |
|                                                                             |
 -----------------------------------------------------------------------------

 POTCAR:    PAW_PBE Fe_pv 02Aug2007               
   SHA256 =  5d22e414b1f82158bf2c7ecb8b97b28fd0923e48cadc1c3bf74d524558f5dd32 Fe_pv/POTCAR          
   COPYR  = (c) Copyright 02Aug2007 Georg Kresse                                                    
   COPYR  = This file is part of the software VASP. Any use, copying, and all other rights are regul
   COPYR  = If you do not have a valid VASP license, you may not use, copy or distribute this file. 
   VRHFIN =Fe:  3pd7s1                                                                              
   LEXCH  = PE                                                                                      
   EATOM  =  2457.4239 eV,  180.6156 Ry                                                             
                                                                                                    
   TITEL  = PAW_PBE Fe_pv 02Aug2007                                                                 
   LULTRA =        F    use ultrasoft PP ?                                                          
   IUNSCR =        1    unscreen: 0-lin 1-nonlin 2-no                                               
   RPACOR =    1.750    partial core radius                                                         
   POMASS =   55.847; ZVAL   =   14.000    mass and valenz                                          
   RCORE  =    2.200    outmost cutoff radius                                                       
   RWIGS  =    2.200; RWIGS  =    1.164    wigner-seitz radius (au A)                               
   ENMAX  =  293.238; ENMIN  =  219.928 eV                                                          
   ICORE  =        3    local potential                                                             
   LCOR   =        T    correct aug charges                                                         
   LPAW   =        T    paw PP                                                                      
   EAUG   =  578.342                                                                                
   DEXC   =    0.000                                                                                
   RMAX   =    2.249    core radius for proj-oper                                                   
   RAUG   =    1.300    factor for augmentation sphere                                              
   RDEP   =    2.296    radius for radial grids                                                     
   RDEPT  =    1.766    core radius for aug-charge                                                  
                                                                                                    
   Atomic configuration                                                                             
    8 entries                                                                                       
     n  l   j            E        occ.                                                              
     1  0  0.50     -6993.8440   2.0000                                                             
     2  0  0.50      -814.6047   2.0000                                                             
     2  1  1.50      -693.3689   6.0000                                                             
     3  0  0.50       -89.4732   2.0000                                                             
     3  1  1.50       -55.6373   6.0000                                                             
     3  2  2.50        -3.8151   7.0000                                                             
     4  0  0.50        -4.2551   1.0000                                                             
     4  3  2.50        -1.3606   0.0000                                                             
   Description                                                                                      
     l       E           TYP  RCUT    TYP  RCUT                                                     
     1    -55.6372668     23  2.000                                                                 
     1     -5.4423304     23  2.000                                                                 
     2     -3.8151096     23  2.200                                                                 
     2     -5.1756922     23  2.200                                                                 
     0     -4.2550951     23  2.200                                                                 
     0     27.2116520     23  2.200                                                                 
     3     -1.3605826     23  2.200                                                                 
  local pseudopotential read in
  partial core-charges read in
  partial kinetic energy density read in
  atomic valenz-charges read in
  non local Contribution for L=           1  read in
    real space projection operators read in
  non local Contribution for L=           1  read in
    real space projection operators read in
  non local Contribution for L=           2  read in
    real space projection operators read in
  non local Contribution for L=           2  read in
    real space projection operators read in
  non local Contribution for L=           0  read in
    real space projection operators read in
  non local Contribution for L=           0  read in
    real space projection operators read in
    PAW grid and wavefunctions read in
 
   number of l-projection  operators is LMAX  =           6
   number of lm-projection operators is LMMAX =          18
 
 POTCAR:    PAW_PBE Pt 04Feb2005                  
   SHA256 =  3ed90460adef76debcff1cfb73ee1349b515b1a3db03439735b44de3a8db7dc8 Pt/POTCAR             
   COPYR  = (c) Copyright 04Feb2005 Georg Kresse                                                    
   COPYR  = This file is part of the software VASP. Any use, copying, and all other rights are regul
   COPYR  = If you do not have a valid VASP license, you may not use, copy or distribute this file. 
   VRHFIN =Pt: s1d9                                                                                 
   LEXCH  = PE                                                                                      
   EATOM  =   729.1176 eV,   53.5886 Ry                                                             
                                                                                                    
   TITEL  = PAW_PBE Pt 04Feb2005                                                                    
   LULTRA =        F    use ultrasoft PP ?                                                          
   IUNSCR =        1    unscreen: 0-lin 1-nonlin 2-no                                               
   RPACOR =    2.330    partial core radius                                                         
   POMASS =  195.080; ZVAL   =   10.000    mass and valenz                                          
   RCORE  =    2.600    outmost cutoff radius                                                       
   RWIGS  =    2.750; RWIGS  =    1.455    wigner-seitz radius (au A)                               
   ENMAX  =  230.283; ENMIN  =  172.712 eV                                                          
   ICORE  =        3    local potential                                                             
   LCOR   =        T    correct aug charges                                                         
   LPAW   =        T    paw PP                                                                      
   EAUG   =  358.966                                                                                
   DEXC   =    0.000                                                                                
   RMAX   =    2.658    core radius for proj-oper                                                   
   RAUG   =    1.300    factor for augmentation sphere                                              
   RDEP   =    2.761    radius for radial grids                                                     
   RDEPT  =    2.203    core radius for aug-charge                                                  
                                                                                                    
   Atomic configuration                                                                             
   16 entries                                                                                       
     n  l   j            E        occ.                                                              
     1  0  0.50    -78401.1885   2.0000                                                             
     2  0  0.50    -13770.7750   2.0000                                                             
     2  1  1.50    -11931.0468   6.0000                                                             
     3  0  0.50     -3234.7234   2.0000                                                             
     3  1  1.50     -2699.2216   6.0000                                                             
     3  2  2.50     -2119.5714  10.0000                                                             
     4  0  0.50      -695.1528   2.0000                                                             
     4  1  1.50      -519.6034   6.0000                                                             
     4  2  2.50      -306.6786  10.0000                                                             
     4  3  3.50       -70.1041  14.0000                                                             
     5  0  0.50      -101.7747   2.0000                                                             
     5  1  1.50       -55.9873   6.0000                                                             
     5  2  2.50        -6.1423   9.0000                                                             
     6  0  0.50        -5.6573   1.0000                                                             
     6  1  1.50        -6.8029   0.0000                                                             
     5  3  2.50        -1.3606   0.0000                                                             
   Description                                                                                      
     l       E           TYP  RCUT    TYP  RCUT                                                     
     2     -6.1423404     23  2.500                                                                 
     2     -7.5029230     23  2.500                                                                 
     0     -5.6573207     23  2.500                                                                 
     0      0.7416693     23  2.500                                                                 
     1     -2.7211652     23  2.600                                                                 
     1     20.4087390     23  2.600                                                                 
     3     -1.3605826     23  2.500                                                                 
  local pseudopotential read in
  partial core-charges read in
  partial kinetic energy density read in
  atomic valenz-charges read in
  non local Contribution for L=           2  read in
    real space projection operators read in
  non local Contribution for L=           2  read in
    real space projection operators read in
  non local Contribution for L=           0  read in
    real space projection operators read in
  non local Contribution for L=           0  read in
    real space projection operators read in
  non local Contribution for L=           1  read in
    real space projection operators read in
  non local Contribution for L=           1  read in
    real space projection operators read in
    PAW grid and wavefunctions read in
 
   number of l-projection  operators is LMAX  =           6
   number of lm-projection operators is LMMAX =          18
 
  PAW_PBE Fe_pv 02Aug2007               :
 energy of atom  1       EATOM=-2457.4239
 kinetic energy error for atom=    0.0062 (will be added to EATOM!!)
  PAW_PBE Pt 04Feb2005                  :
 energy of atom  2       EATOM= -729.1176
 kinetic energy error for atom=    0.0032 (will be added to EATOM!!)
 
 
 POSCAR: Fe9 Pt3
  positions in direct lattice
  velocities in cartesian coordinates


 exchange-correlation table for PE
   RHO(1)=    0.500       N(1)  =     2000
   RHO(2)=  100.500       N(2)  =     4000
 


--------------------------------------------------------------------------------------------------------


 ion  position               nearest neighbor table
   1  0.000  0.500  0.167-   4 2.59   4 2.59  11 2.60  11 2.60   7 2.62   7 2.62   7 2.62   7 2.62
                            10 2.65  10 2.65   5 2.67   5 2.67
   2  0.000  0.500  0.499-   5 2.59   5 2.59   8 2.62   8 2.62   8 2.62   8 2.62   6 2.62   6 2.62
                            12 2.64  12 2.64  11 2.66  11 2.66
   3  0.000  0.500  0.834-   9 2.62   9 2.62   9 2.62   9 2.62  10 2.62  10 2.62  12 2.64  12 2.64
                             6 2.66   6 2.66   4 2.67   4 2.67
   4  0.500  0.500  0.005-   1 2.59   7 2.59   7 2.59   1 2.59  10 2.62  10 2.62  10 2.62  10 2.62
                             9 2.67   3 2.67   9 2.67   3 2.67
   5  0.500  0.500  0.338-   2 2.59   8 2.59   8 2.59   2 2.59  11 2.62  11 2.62  11 2.62  11 2.62
                             1 2.67   7 2.67   1 2.67   7 2.67
   6  0.500  0.500  0.664-  12 2.62  12 2.62  12 2.62  12 2.62   8 2.62   2 2.62   2 2.62   8 2.62
                             9 2.66   3 2.66   9 2.66   3 2.66
   7  0.500  0.000  0.167-   4 2.59   4 2.59  11 2.60  11 2.60   1 2.62   1 2.62   1 2.62   1 2.62
                            10 2.65  10 2.65   5 2.67   5 2.67
   8  0.500  0.000  0.499-   5 2.59   5 2.59   2 2.62   2 2.62   2 2.62   2 2.62   6 2.62   6 2.62
                            12 2.64  12 2.64  11 2.66  11 2.66
   9  0.500  0.000  0.834-   3 2.62   3 2.62   3 2.62   3 2.62  10 2.62  10 2.62  12 2.64  12 2.64
                             6 2.66   6 2.66   4 2.67   4 2.67
  10  0.000  0.000  0.998-   4 2.62   4 2.62   4 2.62   4 2.62   3 2.62   9 2.62   9 2.62   3 2.62
                             1 2.65   7 2.65   7 2.65   1 2.65
  11  0.000  0.000  0.330-   1 2.60   7 2.60   1 2.60   7 2.60   5 2.62   5 2.62   5 2.62   5 2.62
                             2 2.66   2 2.66   8 2.66   8 2.66
  12  0.000  0.000  0.666-   6 2.62   6 2.62   6 2.62   6 2.62   2 2.64   8 2.64   8 2.64   2 2.64
                             3 2.64   3 2.64   9 2.64   9 2.64
 
  LATTYP: Found a simple tetragonal cell.
 ALAT       =     3.7000991012
 C/A-ratio  =     3.0400494818
  
  Lattice vectors:
  
 A1 = (   3.7000991012,   0.0000000000,   0.0000000000)
 A2 = (   0.0000000000,   3.7000991012,   0.0000000000)
 A3 = (   0.0000000000,   0.0000000000,  11.2484843554)


Analysis of symmetry for initial positions (statically):
=====================================================================
 Subroutine PRICEL returns:
 Original cell was already a primitive cell.
 

 Routine SETGRP: Setting up the symmetry group for a 
 simple tetragonal supercell.


 Subroutine GETGRP returns: Found  8 space group operations
 (whereof  8 operations were pure point group operations)
 out of a pool of 16 trial point group operations.


The static configuration has the point symmetry C_4v.


Analysis of symmetry for dynamics (positions and initial velocities):
=====================================================================
 Subroutine PRICEL returns:
 Original cell was already a primitive cell.
 

 Routine SETGRP: Setting up the symmetry group for a 
 simple tetragonal supercell.


 Subroutine GETGRP returns: Found  8 space group operations
 (whereof  8 operations were pure point group operations)
 out of a pool of 16 trial point group operations.


The dynamic configuration has the point symmetry C_4v.


Analysis of structural, dynamic, and magnetic symmetry:
=====================================================================
 Subroutine PRICEL returns:
 Original cell was already a primitive cell.
 

 Routine SETGRP: Setting up the symmetry group for a 
 simple tetragonal supercell.


 Subroutine GETGRP returns: Found  8 space group operations
 (whereof  8 operations were pure point group operations)
 out of a pool of 16 trial point group operations.


The overall configuration has the point symmetry C_4v.


 Subroutine INISYM returns: Found  8 space group operations
 (whereof  8 operations are pure point group operations),
 and found     1 'primitive' translations


----------------------------------------------------------------------------------------

                                     Primitive cell                                     

  volume of cell :     154.0000

  direct lattice vectors                    reciprocal lattice vectors
     3.700099101  0.000000000  0.000000000     0.270263032  0.000000000  0.000000000
     0.000000000  3.700099101  0.000000000     0.000000000  0.270263032  0.000000000
     0.000000000  0.000000000 11.248484355     0.000000000  0.000000000  0.088900866

  length of vectors
     3.700099101  3.700099101 11.248484355     0.270263032  0.270263032  0.088900866

  position of ions in fractional coordinates (direct lattice)
     0.000000000  0.500000000  0.166700303
     0.000000000  0.500000000  0.499169453
     0.000000000  0.500000000  0.833591540
     0.500000000  0.500000000  0.005048931
     0.500000000  0.500000000  0.337834872
     0.500000000  0.500000000  0.663991607
     0.500000000  0.000000000  0.166700303
     0.500000000  0.000000000  0.499169453
     0.500000000  0.000000000  0.833591540
     0.000000000  0.000000000  0.998365861
     0.000000000  0.000000000  0.329517729
     0.000000000  0.000000000  0.666318411

  ion indices of the primitive-cell ions
   primitive index   ion index
                 1           1
                 2           2
                 3           3
                 4           4
                 5           5
                 6           6
                 7           7
                 8           8
                 9           9
                10          10
                11          11
                12          12

----------------------------------------------------------------------------------------

 
 
 KPOINTS: pymatgen with grid density = 8800 / numb

Automatic generation of k-mesh.
 Grid dimensions read from file:
 generate k-points for:   13   13    4

 Generating k-lattice:

  Cartesian coordinates                     Fractional coordinates (reciprocal lattice)
     0.020789464  0.000000000  0.000000000     0.076923077  0.000000000  0.000000000
     0.000000000  0.020789464  0.000000000     0.000000000  0.076923077  0.000000000
     0.000000000  0.000000000  0.022225216     0.000000000  0.000000000  0.250000000

  Length of vectors
     0.020789464  0.020789464  0.022225216

  Shift w.r.t. Gamma in fractional coordinates (k-lattice)
     0.000000000  0.000000000  0.000000000

 TETIRR: Found   1010 inequivalent tetrahedra from     4056
 
 Subroutine IBZKPT returns following result:
 ===========================================
 
 Found     84 irreducible k-points:
 
 Following reciprocal coordinates:
            Coordinates               Weight
  0.000000  0.000000  0.000000      1.000000
  0.076923  0.000000  0.000000      4.000000
  0.153846  0.000000  0.000000      4.000000
  0.230769  0.000000  0.000000      4.000000
  0.307692  0.000000  0.000000      4.000000
  0.384615  0.000000  0.000000      4.000000
  0.461538  0.000000  0.000000      4.000000
  0.076923  0.076923  0.000000      4.000000
  0.153846  0.076923  0.000000      8.000000
  0.230769  0.076923  0.000000      8.000000
  0.307692  0.076923  0.000000      8.000000
  0.384615  0.076923  0.000000      8.000000
  0.461538  0.076923  0.000000      8.000000
  0.153846  0.153846  0.000000      4.000000
  0.230769  0.153846  0.000000      8.000000
  0.307692  0.153846  0.000000      8.000000
  0.384615  0.153846  0.000000      8.000000
  0.461538  0.153846  0.000000      8.000000
  0.230769  0.230769  0.000000      4.000000
  0.307692  0.230769  0.000000      8.000000
  0.384615  0.230769  0.000000      8.000000
  0.461538  0.230769  0.000000      8.000000
  0.307692  0.307692  0.000000      4.000000
  0.384615  0.307692  0.000000      8.000000
  0.461538  0.307692  0.000000      8.000000
  0.384615  0.384615  0.000000      4.000000
  0.461538  0.384615  0.000000      8.000000
  0.461538  0.461538  0.000000      4.000000
  0.000000  0.000000  0.250000      2.000000
  0.076923  0.000000  0.250000      8.000000
  0.153846  0.000000  0.250000      8.000000
  0.230769  0.000000  0.250000      8.000000
  0.307692  0.000000  0.250000      8.000000
  0.384615  0.000000  0.250000      8.000000
  0.461538  0.000000  0.250000      8.000000
  0.076923  0.076923  0.250000      8.000000
  0.153846  0.076923  0.250000     16.000000
  0.230769  0.076923  0.250000     16.000000
  0.307692  0.076923  0.250000     16.000000
  0.384615  0.076923  0.250000     16.000000
  0.461538  0.076923  0.250000     16.000000
  0.153846  0.153846  0.250000      8.000000
  0.230769  0.153846  0.250000     16.000000
  0.307692  0.153846  0.250000     16.000000
  0.384615  0.153846  0.250000     16.000000
  0.461538  0.153846  0.250000     16.000000
  0.230769  0.230769  0.250000      8.000000
  0.307692  0.230769  0.250000     16.000000
  0.384615  0.230769  0.250000     16.000000
  0.461538  0.230769  0.250000     16.000000
  0.307692  0.307692  0.250000      8.000000
  0.384615  0.307692  0.250000     16.000000
  0.461538  0.307692  0.250000     16.000000
  0.384615  0.384615  0.250000      8.000000
  0.461538  0.384615  0.250000     16.000000
  0.461538  0.461538  0.250000      8.000000
  0.000000  0.000000  0.500000      1.000000
  0.076923  0.000000  0.500000      4.000000
  0.153846  0.000000  0.500000      4.000000
  0.230769  0.000000  0.500000      4.000000
  0.307692  0.000000  0.500000      4.000000
  0.384615  0.000000  0.500000      4.000000
  0.461538  0.000000  0.500000      4.000000
  0.076923  0.076923  0.500000      4.000000
  0.153846  0.076923  0.500000      8.000000
  0.230769  0.076923  0.500000      8.000000
  0.307692  0.076923  0.500000      8.000000
  0.384615  0.076923  0.500000      8.000000
  0.461538  0.076923  0.500000      8.000000
  0.153846  0.153846  0.500000      4.000000
  0.230769  0.153846  0.500000      8.000000
  0.307692  0.153846  0.500000      8.000000
  0.384615  0.153846  0.500000      8.000000
  0.461538  0.153846  0.500000      8.000000
  0.230769  0.230769  0.500000      4.000000
  0.307692  0.230769  0.500000      8.000000
  0.384615  0.230769  0.500000      8.000000
  0.461538  0.230769  0.500000      8.000000
  0.307692  0.307692  0.500000      4.000000
  0.384615  0.307692  0.500000      8.000000
  0.461538  0.307692  0.500000      8.000000
  0.384615  0.384615  0.500000      4.000000
  0.461538  0.384615  0.500000      8.000000
  0.461538  0.461538  0.500000      4.000000
 
 Following cartesian coordinates:
            Coordinates               Weight
  0.000000  0.000000  0.000000      1.000000
  0.020789  0.000000  0.000000      4.000000
  0.041579  0.000000  0.000000      4.000000
  0.062368  0.000000  0.000000      4.000000
  0.083158  0.000000  0.000000      4.000000
  0.103947  0.000000  0.000000      4.000000
  0.124737  0.000000  0.000000      4.000000
  0.020789  0.020789  0.000000      4.000000
  0.041579  0.020789  0.000000      8.000000
  0.062368  0.020789  0.000000      8.000000
  0.083158  0.020789  0.000000      8.000000
  0.103947  0.020789  0.000000      8.000000
  0.124737  0.020789  0.000000      8.000000
  0.041579  0.041579  0.000000      4.000000
  0.062368  0.041579  0.000000      8.000000
  0.083158  0.041579  0.000000      8.000000
  0.103947  0.041579  0.000000      8.000000
  0.124737  0.041579  0.000000      8.000000
  0.062368  0.062368  0.000000      4.000000
  0.083158  0.062368  0.000000      8.000000
  0.103947  0.062368  0.000000      8.000000
  0.124737  0.062368  0.000000      8.000000
  0.083158  0.083158  0.000000      4.000000
  0.103947  0.083158  0.000000      8.000000
  0.124737  0.083158  0.000000      8.000000
  0.103947  0.103947  0.000000      4.000000
  0.124737  0.103947  0.000000      8.000000
  0.124737  0.124737  0.000000      4.000000
  0.000000  0.000000  0.022225      2.000000
  0.020789  0.000000  0.022225      8.000000
  0.041579  0.000000  0.022225      8.000000
  0.062368  0.000000  0.022225      8.000000
  0.083158  0.000000  0.022225      8.000000
  0.103947  0.000000  0.022225      8.000000
  0.124737  0.000000  0.022225      8.000000
  0.020789  0.020789  0.022225      8.000000
  0.041579  0.020789  0.022225     16.000000
  0.062368  0.020789  0.022225     16.000000
  0.083158  0.020789  0.022225     16.000000
  0.103947  0.020789  0.022225     16.000000
  0.124737  0.020789  0.022225     16.000000
  0.041579  0.041579  0.022225      8.000000
  0.062368  0.041579  0.022225     16.000000
  0.083158  0.041579  0.022225     16.000000
  0.103947  0.041579  0.022225     16.000000
  0.124737  0.041579  0.022225     16.000000
  0.062368  0.062368  0.022225      8.000000
  0.083158  0.062368  0.022225     16.000000
  0.103947  0.062368  0.022225     16.000000
  0.124737  0.062368  0.022225     16.000000
  0.083158  0.083158  0.022225      8.000000
  0.103947  0.083158  0.022225     16.000000
  0.124737  0.083158  0.022225     16.000000
  0.103947  0.103947  0.022225      8.000000
  0.124737  0.103947  0.022225     16.000000
  0.124737  0.124737  0.022225      8.000000
  0.000000  0.000000  0.044450      1.000000
  0.020789  0.000000  0.044450      4.000000
  0.041579  0.000000  0.044450      4.000000
  0.062368  0.000000  0.044450      4.000000
  0.083158  0.000000  0.044450      4.000000
  0.103947  0.000000  0.044450      4.000000
  0.124737  0.000000  0.044450      4.000000
  0.020789  0.020789  0.044450      4.000000
  0.041579  0.020789  0.044450      8.000000
  0.062368  0.020789  0.044450      8.000000
  0.083158  0.020789  0.044450      8.000000
  0.103947  0.020789  0.044450      8.000000
  0.124737  0.020789  0.044450      8.000000
  0.041579  0.041579  0.044450      4.000000
  0.062368  0.041579  0.044450      8.000000
  0.083158  0.041579  0.044450      8.000000
  0.103947  0.041579  0.044450      8.000000
  0.124737  0.041579  0.044450      8.000000
  0.062368  0.062368  0.044450      4.000000
  0.083158  0.062368  0.044450      8.000000
  0.103947  0.062368  0.044450      8.000000
  0.124737  0.062368  0.044450      8.000000
  0.083158  0.083158  0.044450      4.000000
  0.103947  0.083158  0.044450      8.000000
  0.124737  0.083158  0.044450      8.000000
  0.103947  0.103947  0.044450      4.000000
  0.124737  0.103947  0.044450      8.000000
  0.124737  0.124737  0.044450      4.000000
 


--------------------------------------------------------------------------------------------------------




 Dimension of arrays:
   k-points           NKPTS =     84   k-points in BZ     NKDIM =     84   number of bands    NBANDS=    128
   number of dos      NEDOS =    301   number of ions     NIONS =     12
   non local maximal  LDIM  =      6   non local SUM 2l+1 LMDIM =     18
   total plane-waves  NPLWV =  65856
   max r-space proj   IRMAX =      1   max aug-charges    IRDMAX=  26097
   dimension x,y,z NGX =    28 NGY =   28 NGZ =   84
   dimension x,y,z NGXF=    56 NGYF=   56 NGZF=  168
   support grid    NGXF=    56 NGYF=   56 NGZF=  168
   ions per type =               9   3
   NGX,Y,Z   is equivalent  to a cutoff of  12.58, 12.58, 12.41 a.u.
   NGXF,Y,Z  is equivalent  to a cutoff of  25.16, 25.16, 24.83 a.u.

 SYSTEM =  unknown system                          
 POSCAR =  Fe9 Pt3                                 

 Startparameter for this run:
   NWRITE =      2    write-flag & timer
   PREC   = accura    normal or accurate (medium, high low for compatibility)
   ISTART =      0    job   : 0-new  1-cont  2-samecut
   ICHARG =      2    charge: 1-file 2-atom 10-const
   ISPIN  =      2    spin polarized calculation?
   LNONCOLLINEAR =      F non collinear calculations
   LSORBIT =      F    spin-orbit coupling
   INIWAV =      1    electr: 0-lowe 1-rand  2-diag
   LASPH  =      F    aspherical Exc in radial PAW
 Electronic Relaxation 1
   ENCUT  =  520.0 eV  38.22 Ry    6.18 a.u.   6.88  6.88 20.91*2*pi/ulx,y,z
   ENINI  =  520.0     initial cutoff
   ENAUG  =  578.3 eV  augmentation charge cutoff
   NELM   =    200;   NELMIN=  2; NELMDL=  0     # of ELM steps 
   EDIFF  = 0.1E-05   stopping-criterion for ELM
   LREAL  =      F    real-space projection
   NLSPLINE    = F    spline interpolate recip. space projectors
   LCOMPAT=      F    compatible to vasp.4.4
   GGA_COMPAT  = T    GGA compatible to vasp.4.4-vasp.4.6
   LMAXPAW     = -100 max onsite density
   LMAXMIX     =    2 max onsite mixed and CHGCAR
   VOSKOWN=      0    Vosko Wilk Nusair interpolation
   ROPT   =    0.00000   0.00000
 Ionic relaxation
   EDIFFG = -.1E-01   stopping-criterion for IOM
   NSW    =      0    number of steps for IOM
   NBLOCK =      1;   KBLOCK =      1    inner block; outer block 
   IBRION =     -1    ionic relax: 0-MD 1-quasi-New 2-CG
   NFREE  =      0    steps in history (QN), initial steepest desc. (CG)
   ISIF   =      4    stress and relaxation
   IWAVPR =     10    prediction:  0-non 1-charg 2-wave 3-comb
   ISYM   =      2    0-nonsym 1-usesym 2-fastsym
   LCORR  =      T    Harris-Foulkes like correction to forces

   POTIM  = 0.5000    time-step for ionic-motion
   TEIN   =    0.0    initial temperature
   TEBEG  =    0.0;   TEEND  =   0.0 temperature during run
   SMASS  =  -3.00    Nose mass-parameter (am)
   estimated Nose-frequenzy (Omega)   =  0.10E-29 period in steps = 0.13E+47 mass=  -0.313E-27a.u.
   SCALEE = 1.0000    scale energy and forces
   NPACO  =    256;   APACO  = 10.0  distance and # of slots for P.C.
   PSTRESS=    0.0 pullay stress

  Mass of Ions in am
   POMASS =  55.85195.08
  Ionic Valenz
   ZVAL   =  14.00 10.00
  Atomic Wigner-Seitz radii
   RWIGS  =  -1.00 -1.00
  virtual crystal weights 
   VCA    =   1.00  1.00
   NELECT =     156.0000    total number of electrons
   NUPDOWN=      -1.0000    fix difference up-down

 DOS related values:
   EMIN   =  10.00;   EMAX   =-10.00  energy-range for DOS
   EFERMI =   0.00;   METHOD = LEGACY      
   ISMEAR =    -5;   SIGMA  =   0.20  broadening in eV -4-tet -1-fermi 0-gaus

 Electronic relaxation 2 (details)
   IALGO  =     38    algorithm
   LDIAG  =      T    sub-space diagonalisation (order eigenvalues)
   LSUBROT=      F    optimize rotation matrix (better conditioning)
   TURBO    =      0    0=normal 1=particle mesh
   IRESTART =      0    0=no restart 2=restart with 2 vectors
   NREBOOT  =      0    no. of reboots
   NMIN     =      0    reboot dimension
   EREF     =   0.00    reference energy to select bands
   IMIX   =      4    mixing-type and parameters
     AMIX     =   0.40;   BMIX     =  1.00
     AMIX_MAG =   1.60;   BMIX_MAG =  1.00
     AMIN     =   0.10
     WC   =   100.;   INIMIX=   1;  MIXPRE=   1;  MAXMIX= -45

 Intra band minimization:
   WEIMIN = 0.0000     energy-eigenvalue tresh-hold
   EBREAK =  0.20E-08  absolut break condition
   DEPER  =   0.30     relativ break condition  

   TIME   =   0.40     timestep for ELM

  volume/ion in A,a.u.               =      12.83        86.60
  Fermi-wavevector in a.u.,A,eV,Ry     =   1.644155  3.107003 36.779896  2.703246
  Thomas-Fermi vector in A             =   2.734169
 
 Write flags
   LWAVE        =      F    write WAVECAR
   LDOWNSAMPLE  =      F    k-point downsampling of WAVECAR
   LCHARG       =      T    write CHGCAR
   LVTOT        =      F    write LOCPOT, total local potential
   LVHAR        =      F    write LOCPOT, Hartree potential only
   WRT_POTENTIAL= false  ! write potential to hdf5 file
   LELF         =      F    write electronic localiz. function (ELF)
   LORBIT       =     11    0 simple, 1 ext, 2 COOP (PROOUT), +10 PAW based schemes


 Dipole corrections
   LMONO      =      F    monopole corrections only (constant potential shift)
   LDIPOL     =      F    correct potential (dipole corrections)
   IDIPOL     =      0    1-x, 2-y, 3-z, 4-all directions 
   EPSILON    =  1.0000000 bulk dielectric constant
   LVACPOTAV  =      F  vacuum potentials using an averaging scheme for the charge density
   VACPOTFLAT =  0.1000000 required flatness to determine vacuum potential
 Exchange correlation treatment:
   GGA     = PE    functional components
   XC_C    = 1    coefficients multiplying the functional components
   LIBXC   =     F    Libxc                    
   VOSKOWN =     0    Vosko Wilk Nusair interpolation
   LHFCALC =     F    Hartree Fock is set to
   LHFONE  =     F    Hartree Fock one center treatment
   AEXX    =    0.0000 exact exchange contribution

 Parameters of functionals:
   PE:
     No parameter
 
 Van der Waals corrections
   IVDW    =     0    specifies the selected vdW correction

 Linear response parameters
   LEPSILON=     F    determine dielectric tensor
   LRPA    =     F    only Hartree local field effects (RPA)
   LNABLA  =     F    use nabla operator in PAW spheres
   LVEL    =     F    velocity operator in full k-point grid
   CSHIFT  =0.1000    complex shift for real part using Kramers Kronig
   OMEGAMAX=  -1.0    maximum frequency
   DEG_THRESHOLD= 0.2000000E-02 threshold for treating states as degnerate
   RTIME   =   -0.100 relaxation time in fs
  (WPLASMAI=    0.000 imaginary part of plasma frequency in eV, 0.658/RTIME)
   DFIELD  = 0.0000000 0.0000000 0.0000000 field for delta impulse in time
 
  Optional k-point grid parameters
   LKPOINTS_OPT  =     F    use optional k-point grid
   KPOINTS_OPT_MODE=     1    mode for optional k-point grid
 
 Orbital magnetization related:
   ORBITALMAG=     F  switch on orbital magnetization
   LCHIMAG   =     F  perturbation theory with respect to B field
   DQ        =  0.001000  dq finite difference perturbation B field
   LLRAUG    =     F  two centre corrections for induced B field
   LBONE     =     F  B-component reconstruction in AE one-centre
   LVGVCALC  =     T  calculate vGv susceptibility
   LVGVAPPL  =     F  apply vGv susceptibility instead of pGv for G=0

 Random number generation:
   RANDOM_GENERATOR = DEFAULT
   PCG_SEED         = not used


--------------------------------------------------------------------------------------------------------


 Static calculation
 charge density and potential will be updated during run
 spin polarized calculation
 Variant of blocked Davidson
 Davidson routine will perform the subspace rotation
 perform sub-space diagonalisation
    after iterative eigenvector-optimisation
 modified Broyden-mixing scheme, WC =      100.0
 initial mixing is a Kerker type mixing with AMIX =  0.4000 and BMIX =      1.0000
 Hartree-type preconditioning will be used
 using additional bands           50
 reciprocal scheme for non local part
 use partial core corrections
 calculate Harris-corrections to forces 
   (improved forces if not selfconsistent)
 use gradient corrections 
 use of overlap-Matrix (Vanderbilt PP)
 Fermi weights with tetrahedron method with Bloechl corrections


--------------------------------------------------------------------------------------------------------


  energy-cutoff  :      520.00
  volume of cell :      154.00
      direct lattice vectors                 reciprocal lattice vectors
     3.700099101  0.000000000  0.000000000     0.270263032  0.000000000  0.000000000
     0.000000000  3.700099101  0.000000000     0.000000000  0.270263032  0.000000000
     0.000000000  0.000000000 11.248484355     0.000000000  0.000000000  0.088900866

  length of vectors
     3.700099101  3.700099101 11.248484355     0.270263032  0.270263032  0.088900866


 
 k-points in units of 2pi/SCALE and weight: pymatgen with grid density = 8800 / numb
   0.00000000  0.00000000  0.00000000       0.001
   0.02078946  0.00000000  0.00000000       0.006
   0.04157893  0.00000000  0.00000000       0.006
   0.06236839  0.00000000  0.00000000       0.006
   0.08315786  0.00000000  0.00000000       0.006
   0.10394732  0.00000000  0.00000000       0.006
   0.12473678  0.00000000  0.00000000       0.006
   0.02078946  0.02078946  0.00000000       0.006
   0.04157893  0.02078946  0.00000000       0.012
   0.06236839  0.02078946  0.00000000       0.012
   0.08315786  0.02078946  0.00000000       0.012
   0.10394732  0.02078946  0.00000000       0.012
   0.12473678  0.02078946  0.00000000       0.012
   0.04157893  0.04157893  0.00000000       0.006
   0.06236839  0.04157893  0.00000000       0.012
   0.08315786  0.04157893  0.00000000       0.012
   0.10394732  0.04157893  0.00000000       0.012
   0.12473678  0.04157893  0.00000000       0.012
   0.06236839  0.06236839  0.00000000       0.006
   0.08315786  0.06236839  0.00000000       0.012
   0.10394732  0.06236839  0.00000000       0.012
   0.12473678  0.06236839  0.00000000       0.012
   0.08315786  0.08315786  0.00000000       0.006
   0.10394732  0.08315786  0.00000000       0.012
   0.12473678  0.08315786  0.00000000       0.012
   0.10394732  0.10394732  0.00000000       0.006
   0.12473678  0.10394732  0.00000000       0.012
   0.12473678  0.12473678  0.00000000       0.006
   0.00000000  0.00000000  0.02222522       0.003
   0.02078946  0.00000000  0.02222522       0.012
   0.04157893  0.00000000  0.02222522       0.012
   0.06236839  0.00000000  0.02222522       0.012
   0.08315786  0.00000000  0.02222522       0.012
   0.10394732  0.00000000  0.02222522       0.012
   0.12473678  0.00000000  0.02222522       0.012
   0.02078946  0.02078946  0.02222522       0.012
   0.04157893  0.02078946  0.02222522       0.024
   0.06236839  0.02078946  0.02222522       0.024
   0.08315786  0.02078946  0.02222522       0.024
   0.10394732  0.02078946  0.02222522       0.024
   0.12473678  0.02078946  0.02222522       0.024
   0.04157893  0.04157893  0.02222522       0.012
   0.06236839  0.04157893  0.02222522       0.024
   0.08315786  0.04157893  0.02222522       0.024
   0.10394732  0.04157893  0.02222522       0.024
   0.12473678  0.04157893  0.02222522       0.024
   0.06236839  0.06236839  0.02222522       0.012
   0.08315786  0.06236839  0.02222522       0.024
   0.10394732  0.06236839  0.02222522       0.024
   0.12473678  0.06236839  0.02222522       0.024
   0.08315786  0.08315786  0.02222522       0.012
   0.10394732  0.08315786  0.02222522       0.024
   0.12473678  0.08315786  0.02222522       0.024
   0.10394732  0.10394732  0.02222522       0.012
   0.12473678  0.10394732  0.02222522       0.024
   0.12473678  0.12473678  0.02222522       0.012
   0.00000000  0.00000000  0.04445043       0.001
   0.02078946  0.00000000  0.04445043       0.006
   0.04157893  0.00000000  0.04445043       0.006
   0.06236839  0.00000000  0.04445043       0.006
   0.08315786  0.00000000  0.04445043       0.006
   0.10394732  0.00000000  0.04445043       0.006
   0.12473678  0.00000000  0.04445043       0.006
   0.02078946  0.02078946  0.04445043       0.006
   0.04157893  0.02078946  0.04445043       0.012
   0.06236839  0.02078946  0.04445043       0.012
   0.08315786  0.02078946  0.04445043       0.012
   0.10394732  0.02078946  0.04445043       0.012
   0.12473678  0.02078946  0.04445043       0.012
   0.04157893  0.04157893  0.04445043       0.006
   0.06236839  0.04157893  0.04445043       0.012
   0.08315786  0.04157893  0.04445043       0.012
   0.10394732  0.04157893  0.04445043       0.012
   0.12473678  0.04157893  0.04445043       0.012
   0.06236839  0.06236839  0.04445043       0.006
   0.08315786  0.06236839  0.04445043       0.012
   0.10394732  0.06236839  0.04445043       0.012
   0.12473678  0.06236839  0.04445043       0.012
   0.08315786  0.08315786  0.04445043       0.006
   0.10394732  0.08315786  0.04445043       0.012
   0.12473678  0.08315786  0.04445043       0.012
   0.10394732  0.10394732  0.04445043       0.006
   0.12473678  0.10394732  0.04445043       0.012
   0.12473678  0.12473678  0.04445043       0.006
 
 k-points in reciprocal lattice and weights: pymatgen with grid density = 8800 / numb
   0.00000000  0.00000000  0.00000000       0.001
   0.07692308  0.00000000  0.00000000       0.006
   0.15384615  0.00000000  0.00000000       0.006
   0.23076923  0.00000000  0.00000000       0.006
   0.30769231  0.00000000  0.00000000       0.006
   0.38461538  0.00000000  0.00000000       0.006
   0.46153846  0.00000000  0.00000000       0.006
   0.07692308  0.07692308  0.00000000       0.006
   0.15384615  0.07692308  0.00000000       0.012
   0.23076923  0.07692308  0.00000000       0.012
   0.30769231  0.07692308  0.00000000       0.012
   0.38461538  0.07692308  0.00000000       0.012
   0.46153846  0.07692308  0.00000000       0.012
   0.15384615  0.15384615  0.00000000       0.006
   0.23076923  0.15384615  0.00000000       0.012
   0.30769231  0.15384615  0.00000000       0.012
   0.38461538  0.15384615  0.00000000       0.012
   0.46153846  0.15384615  0.00000000       0.012
   0.23076923  0.23076923  0.00000000       0.006
   0.30769231  0.23076923  0.00000000       0.012
   0.38461538  0.23076923  0.00000000       0.012
   0.46153846  0.23076923  0.00000000       0.012
   0.30769231  0.30769231  0.00000000       0.006
   0.38461538  0.30769231  0.00000000       0.012
   0.46153846  0.30769231  0.00000000       0.012
   0.38461538  0.38461538  0.00000000       0.006
   0.46153846  0.38461538  0.00000000       0.012
   0.46153846  0.46153846  0.00000000       0.006
   0.00000000  0.00000000  0.25000000       0.003
   0.07692308  0.00000000  0.25000000       0.012
   0.15384615  0.00000000  0.25000000       0.012
   0.23076923  0.00000000  0.25000000       0.012
   0.30769231  0.00000000  0.25000000       0.012
   0.38461538  0.00000000  0.25000000       0.012
   0.46153846  0.00000000  0.25000000       0.012
   0.07692308  0.07692308  0.25000000       0.012
   0.15384615  0.07692308  0.25000000       0.024
   0.23076923  0.07692308  0.25000000       0.024
   0.30769231  0.07692308  0.25000000       0.024
   0.38461538  0.07692308  0.25000000       0.024
   0.46153846  0.07692308  0.25000000       0.024
   0.15384615  0.15384615  0.25000000       0.012
   0.23076923  0.15384615  0.25000000       0.024
   0.30769231  0.15384615  0.25000000       0.024
   0.38461538  0.15384615  0.25000000       0.024
   0.46153846  0.15384615  0.25000000       0.024
   0.23076923  0.23076923  0.25000000       0.012
   0.30769231  0.23076923  0.25000000       0.024
   0.38461538  0.23076923  0.25000000       0.024
   0.46153846  0.23076923  0.25000000       0.024
   0.30769231  0.30769231  0.25000000       0.012
   0.38461538  0.30769231  0.25000000       0.024
   0.46153846  0.30769231  0.25000000       0.024
   0.38461538  0.38461538  0.25000000       0.012
   0.46153846  0.38461538  0.25000000       0.024
   0.46153846  0.46153846  0.25000000       0.012
   0.00000000  0.00000000  0.50000000       0.001
   0.07692308  0.00000000  0.50000000       0.006
   0.15384615  0.00000000  0.50000000       0.006
   0.23076923  0.00000000  0.50000000       0.006
   0.30769231  0.00000000  0.50000000       0.006
   0.38461538  0.00000000  0.50000000       0.006
   0.46153846  0.00000000  0.50000000       0.006
   0.07692308  0.07692308  0.50000000       0.006
   0.15384615  0.07692308  0.50000000       0.012
   0.23076923  0.07692308  0.50000000       0.012
   0.30769231  0.07692308  0.50000000       0.012
   0.38461538  0.07692308  0.50000000       0.012
   0.46153846  0.07692308  0.50000000       0.012
   0.15384615  0.15384615  0.50000000       0.006
   0.23076923  0.15384615  0.50000000       0.012
   0.30769231  0.15384615  0.50000000       0.012
   0.38461538  0.15384615  0.50000000       0.012
   0.46153846  0.15384615  0.50000000       0.012
   0.23076923  0.23076923  0.50000000       0.006
   0.30769231  0.23076923  0.50000000       0.012
   0.38461538  0.23076923  0.50000000       0.012
   0.46153846  0.23076923  0.50000000       0.012
   0.30769231  0.30769231  0.50000000       0.006
   0.38461538  0.30769231  0.50000000       0.012
   0.46153846  0.30769231  0.50000000       0.012
   0.38461538  0.38461538  0.50000000       0.006
   0.46153846  0.38461538  0.50000000       0.012
   0.46153846  0.46153846  0.50000000       0.006
 
 position of ions in fractional coordinates (direct lattice) 
   0.00000000  0.50000000  0.16670030
   0.00000000  0.50000000  0.49916945
   0.00000000  0.50000000  0.83359154
   0.50000000  0.50000000  0.00504893
   0.50000000  0.50000000  0.33783487
   0.50000000  0.50000000  0.66399161
   0.50000000  0.00000000  0.16670030
   0.50000000  0.00000000  0.49916945
   0.50000000  0.00000000  0.83359154
   0.00000000  0.00000000  0.99836586
   0.00000000  0.00000000  0.32951773
   0.00000000  0.00000000  0.66631841
 
 position of ions in cartesian coordinates  (Angst):
   0.00000000  1.85004955  1.87512575
   0.00000000  1.85004955  5.61489978
   0.00000000  1.85004955  9.37664139
   1.85004955  1.85004955  0.05679282
   1.85004955  1.85004955  3.80013027
   1.85004955  1.85004955  7.46889921
   1.85004955  0.00000000  1.87512575
   1.85004955  0.00000000  5.61489978
   1.85004955  0.00000000  9.37664139
   0.00000000  0.00000000 11.23010277
   0.00000000  0.00000000  3.70657502
   0.00000000  0.00000000  7.49507222
 


--------------------------------------------------------------------------------------------------------


 k-point     1 :   0.0000 0.0000 0.0000  plane waves:    4145
 k-point     2 :   0.0769 0.0000 0.0000  plane waves:    4131
 k-point     3 :   0.1538 0.0000 0.0000  plane waves:    4130
 k-point     4 :   0.2308 0.0000 0.0000  plane waves:    4124
 k-point     5 :   0.3077 0.0000 0.0000  plane waves:    4132
 k-point     6 :   0.3846 0.0000 0.0000  plane waves:    4136
 k-point     7 :   0.4615 0.0000 0.0000  plane waves:    4154
 k-point     8 :   0.0769 0.0769 0.0000  plane waves:    4117
 k-point     9 :   0.1538 0.0769 0.0000  plane waves:    4125
 k-point    10 :   0.2308 0.0769 0.0000  plane waves:    4130
 k-point    11 :   0.3077 0.0769 0.0000  plane waves:    4134
 k-point    12 :   0.3846 0.0769 0.0000  plane waves:    4142
 k-point    13 :   0.4615 0.0769 0.0000  plane waves:    4145
 k-point    14 :   0.1538 0.1538 0.0000  plane waves:    4124
 k-point    15 :   0.2308 0.1538 0.0000  plane waves:    4146
 k-point    16 :   0.3077 0.1538 0.0000  plane waves:    4146
 k-point    17 :   0.3846 0.1538 0.0000  plane waves:    4147
 k-point    18 :   0.4615 0.1538 0.0000  plane waves:    4152
 k-point    19 :   0.2308 0.2308 0.0000  plane waves:    4160
 k-point    20 :   0.3077 0.2308 0.0000  plane waves:    4164
 k-point    21 :   0.3846 0.2308 0.0000  plane waves:    4153
 k-point    22 :   0.4615 0.2308 0.0000  plane waves:    4152
 k-point    23 :   0.3077 0.3077 0.0000  plane waves:    4164
 k-point    24 :   0.3846 0.3077 0.0000  plane waves:    4156
 k-point    25 :   0.4615 0.3077 0.0000  plane waves:    4169
 k-point    26 :   0.3846 0.3846 0.0000  plane waves:    4156
 k-point    27 :   0.4615 0.3846 0.0000  plane waves:    4168
 k-point    28 :   0.4615 0.4615 0.0000  plane waves:    4152
 k-point    29 :   0.0000 0.0000 0.2500  plane waves:    4138
 k-point    30 :   0.0769 0.0000 0.2500  plane waves:    4131
 k-point    31 :   0.1538 0.0000 0.2500  plane waves:    4127
 k-point    32 :   0.2308 0.0000 0.2500  plane waves:    4131
 k-point    33 :   0.3077 0.0000 0.2500  plane waves:    4148
 k-point    34 :   0.3846 0.0000 0.2500  plane waves:    4138
 k-point    35 :   0.4615 0.0000 0.2500  plane waves:    4154
 k-point    36 :   0.0769 0.0769 0.2500  plane waves:    4131
 k-point    37 :   0.1538 0.0769 0.2500  plane waves:    4135
 k-point    38 :   0.2308 0.0769 0.2500  plane waves:    4133
 k-point    39 :   0.3077 0.0769 0.2500  plane waves:    4138
 k-point    40 :   0.3846 0.0769 0.2500  plane waves:    4138
 k-point    41 :   0.4615 0.0769 0.2500  plane waves:    4147
 k-point    42 :   0.1538 0.1538 0.2500  plane waves:    4135
 k-point    43 :   0.2308 0.1538 0.2500  plane waves:    4140
 k-point    44 :   0.3077 0.1538 0.2500  plane waves:    4144
 k-point    45 :   0.3846 0.1538 0.2500  plane waves:    4148
 k-point    46 :   0.4615 0.1538 0.2500  plane waves:    4154
 k-point    47 :   0.2308 0.2308 0.2500  plane waves:    4145
 k-point    48 :   0.3077 0.2308 0.2500  plane waves:    4154
 k-point    49 :   0.3846 0.2308 0.2500  plane waves:    4162
 k-point    50 :   0.4615 0.2308 0.2500  plane waves:    4161
 k-point    51 :   0.3077 0.3077 0.2500  plane waves:    4164
 k-point    52 :   0.3846 0.3077 0.2500  plane waves:    4155
 k-point    53 :   0.4615 0.3077 0.2500  plane waves:    4153
 k-point    54 :   0.3846 0.3846 0.2500  plane waves:    4166
 k-point    55 :   0.4615 0.3846 0.2500  plane waves:    4164
 k-point    56 :   0.4615 0.4615 0.2500  plane waves:    4172
 k-point    57 :   0.0000 0.0000 0.5000  plane waves:    4154
 k-point    58 :   0.0769 0.0000 0.5000  plane waves:    4154
 k-point    59 :   0.1538 0.0000 0.5000  plane waves:    4152
 k-point    60 :   0.2308 0.0000 0.5000  plane waves:    4140
 k-point    61 :   0.3077 0.0000 0.5000  plane waves:    4138
 k-point    62 :   0.3846 0.0000 0.5000  plane waves:    4132
 k-point    63 :   0.4615 0.0000 0.5000  plane waves:    4144
 k-point    64 :   0.0769 0.0769 0.5000  plane waves:    4152
 k-point    65 :   0.1538 0.0769 0.5000  plane waves:    4138
 k-point    66 :   0.2308 0.0769 0.5000  plane waves:    4136
 k-point    67 :   0.3077 0.0769 0.5000  plane waves:    4138
 k-point    68 :   0.3846 0.0769 0.5000  plane waves:    4144
 k-point    69 :   0.4615 0.0769 0.5000  plane waves:    4158
 k-point    70 :   0.1538 0.1538 0.5000  plane waves:    4126
 k-point    71 :   0.2308 0.1538 0.5000  plane waves:    4134
 k-point    72 :   0.3077 0.1538 0.5000  plane waves:    4140
 k-point    73 :   0.3846 0.1538 0.5000  plane waves:    4156
 k-point    74 :   0.4615 0.1538 0.5000  plane waves:    4160
 k-point    75 :   0.2308 0.2308 0.5000  plane waves:    4132
 k-point    76 :   0.3077 0.2308 0.5000  plane waves:    4142
 k-point    77 :   0.3846 0.2308 0.5000  plane waves:    4156
 k-point    78 :   0.4615 0.2308 0.5000  plane waves:    4162
 k-point    79 :   0.3077 0.3077 0.5000  plane waves:    4164
 k-point    80 :   0.3846 0.3077 0.5000  plane waves:    4166
 k-point    81 :   0.4615 0.3077 0.5000  plane waves:    4162
 k-point    82 :   0.3846 0.3846 0.5000  plane waves:    4166
 k-point    83 :   0.4615 0.3846 0.5000  plane waves:    4152
 k-point    84 :   0.4615 0.4615 0.5000  plane waves:    4154

 maximum and minimum number of plane-waves per node :      4172     4117

 maximum number of plane-waves:      4172
 maximum index in each direction: 
   IXMAX=    6   IYMAX=    6   IZMAX=   20
   IXMIN=   -7   IYMIN=   -7   IZMIN=  -21


 serial   3D FFT for wavefunctions
 parallel 3D FFT for charge:
    minimum data exchange during FFTs selected (reduces bandwidth)


 total amount of memory used by VASP MPI-rank0   187771. kBytes
=======================================================================

   base      :      30000. kBytes
   nonl-proj :     102217. kBytes
   fftplans  :        888. kBytes
   grid      :       6813. kBytes
   one-center:        373. kBytes
   wavefun   :      47480. kBytes
 
     INWAV:  cpu time      0.0001: real time      0.0002
 Broyden mixing: mesh for mixing (old mesh)
   NGX = 13   NGY = 13   NGZ = 41
  (NGX  = 56   NGY  = 56   NGZ  =168)
  gives a total of   6929 points

 initial charge density was supplied:
 charge density of overlapping atoms calculated
 number of electron     156.0000000 magnetization       8.3900000
 keeping initial charge density in first step


--------------------------------------------------------------------------------------------------------


 Maximum index for augmentation-charges         1034 (set IRDMAX)


--------------------------------------------------------------------------------------------------------


 First call to EWALD:  gamma=   0.331
 Maximum number of real-space cells 4x 4x 2
 Maximum number of reciprocal cells 2x 2x 5

    FEWALD:  cpu time      0.0025: real time      0.0025


--------------------------------------- Ionic step        1  -------------------------------------------




--------------------------------------- Iteration      1(   1)  ---------------------------------------


    POTLOK:  cpu time      0.0417: real time      0.0435
    SETDIJ:  cpu time      0.0152: real time      0.0158
     EDDAV:  cpu time      5.7974: real time      5.9651
 BZINTS: Fermi energy:   23.421073;  156.000000 electrons
         Band energy: 0.546866E+03;  BLOECHL correction:   -0.041651
       DOS:  cpu time      0.1282: real time      0.1294
    --------------------------------------------
      LOOP:  cpu time      5.9826: real time      6.1539

 eigenvalue-minimisations  : 43040
 total energy-change (2. order) : 0.1766956E+04  (-0.8461678E+04)
 number of electron     156.0000000 magnetization       8.3900000
 augmentation part      156.0000000 magnetization       8.3900000

 Free energy of the ion-electron system (eV)
  ---------------------------------------------------
  alpha Z        PSCENC =      1105.13071145
  Ewald energy   TEWEN  =    -18166.13273147
  -Hartree energ DENC   =     -5956.17275416
  -exchange      EXHF   =         0.00000000
  -V(xc)+E(xc)   XCENC  =       657.14066847
  PAW double counting   =     20094.52281910   -20818.50078696
  entropy T*S    EENTRO =         0.00000000
  eigenvalues    EBANDS =       546.86555078
  atomic energy  EATOM  =     24304.10294433
  Solvation  Ediel_sol  =         0.00000000
  ---------------------------------------------------
  free energy    TOTEN  =      1766.95642154 eV

  energy without entropy =     1766.95642154  energy(sigma->0) =     1766.95642154


--------------------------------------------------------------------------------------------------------




--------------------------------------- Iteration      1(   2)  ---------------------------------------


     EDDAV:  cpu time      5.7513: real time      5.9638
 BZINTS: Fermi energy:   12.439736;  156.000000 electrons
         Band energy:-0.121462E+04;  BLOECHL correction:   -0.019026
       DOS:  cpu time      0.1267: real time      0.1281
    --------------------------------------------
      LOOP:  cpu time      5.8779: real time      6.0918

 eigenvalue-minimisations  : 43008
 total energy-change (2. order) :-0.1761488E+04  (-0.1672429E+04)
 number of electron     156.0000000 magnetization       8.3900000
 augmentation part      156.0000000 magnetization       8.3900000

 Free energy of the ion-electron system (eV)
  ---------------------------------------------------
  alpha Z        PSCENC =      1105.13071145
  Ewald energy   TEWEN  =    -18166.13273147
  -Hartree energ DENC   =     -5956.17275416
  -exchange      EXHF   =         0.00000000
  -V(xc)+E(xc)   XCENC  =       657.14066847
  PAW double counting   =     20094.52281910   -20818.50078696
  entropy T*S    EENTRO =         0.00000000
  eigenvalues    EBANDS =     -1214.62257678
  atomic energy  EATOM  =     24304.10294433
  Solvation  Ediel_sol  =         0.00000000
  ---------------------------------------------------
  free energy    TOTEN  =         5.46829399 eV

  energy without entropy =        5.46829399  energy(sigma->0) =        5.46829399


--------------------------------------------------------------------------------------------------------




--------------------------------------- Iteration      1(   3)  ---------------------------------------


     EDDAV:  cpu time      6.9198: real time      7.1351
 BZINTS: Fermi energy:   11.858212;  156.000000 electrons
         Band energy:-0.132362E+04;  BLOECHL correction:   -0.021124
       DOS:  cpu time      0.1266: real time      0.1276
    --------------------------------------------
      LOOP:  cpu time      7.0463: real time      7.2628

 eigenvalue-minimisations  : 50656
 total energy-change (2. order) :-0.1089999E+03  (-0.1076335E+03)
 number of electron     156.0000000 magnetization       8.3900000
 augmentation part      156.0000000 magnetization       8.3900000

 Free energy of the ion-electron system (eV)
  ---------------------------------------------------
  alpha Z        PSCENC =      1105.13071145
  Ewald energy   TEWEN  =    -18166.13273147
  -Hartree energ DENC   =     -5956.17275416
  -exchange      EXHF   =         0.00000000
  -V(xc)+E(xc)   XCENC  =       657.14066847
  PAW double counting   =     20094.52281910   -20818.50078696
  entropy T*S    EENTRO =         0.00000000
  eigenvalues    EBANDS =     -1323.62245793
  atomic energy  EATOM  =     24304.10294433
  Solvation  Ediel_sol  =         0.00000000
  ---------------------------------------------------
  free energy    TOTEN  =      -103.53158716 eV

  energy without entropy =     -103.53158716  energy(sigma->0) =     -103.53158716


--------------------------------------------------------------------------------------------------------




--------------------------------------- Iteration      1(   4)  ---------------------------------------


     EDDAV:  cpu time      6.1417: real time      6.3264
 BZINTS: Fermi energy:   11.853365;  156.000000 electrons
         Band energy:-0.132520E+04;  BLOECHL correction:   -0.021128
       DOS:  cpu time      0.1265: real time      0.1274
    --------------------------------------------
      LOOP:  cpu time      6.2682: real time      6.4538

 eigenvalue-minimisations  : 45824
 total energy-change (2. order) :-0.1572835E+01  (-0.1572521E+01)
 number of electron     156.0000000 magnetization       8.3900000
 augmentation part      156.0000000 magnetization       8.3900000

 Free energy of the ion-electron system (eV)
  ---------------------------------------------------
  alpha Z        PSCENC =      1105.13071145
  Ewald energy   TEWEN  =    -18166.13273147
  -Hartree energ DENC   =     -5956.17275416
  -exchange      EXHF   =         0.00000000
  -V(xc)+E(xc)   XCENC  =       657.14066847
  PAW double counting   =     20094.52281910   -20818.50078696
  entropy T*S    EENTRO =         0.00000000
  eigenvalues    EBANDS =     -1325.19529255
  atomic energy  EATOM  =     24304.10294433
  Solvation  Ediel_sol  =         0.00000000
  ---------------------------------------------------
  free energy    TOTEN  =      -105.10442178 eV

  energy without entropy =     -105.10442178  energy(sigma->0) =     -105.10442178


--------------------------------------------------------------------------------------------------------




--------------------------------------- Iteration      1(   5)  ---------------------------------------


     EDDAV:  cpu time      7.3652: real time      7.4219
 BZINTS: Fermi energy:   11.853320;  156.000000 electrons
         Band energy:-0.132523E+04;  BLOECHL correction:   -0.021127
       DOS:  cpu time      0.1306: real time      0.1316
    CHARGE:  cpu time      0.1562: real time      0.1574
    MIXING:  cpu time      0.0071: real time      0.0074
    --------------------------------------------
      LOOP:  cpu time      7.6591: real time      7.7184

 eigenvalue-minimisations  : 52992
 total energy-change (2. order) :-0.3022325E-01  (-0.3022244E-01)
 number of electron     156.0000238 magnetization       7.9201059
 augmentation part       79.2474077 magnetization       5.9055587

 Broyden mixing:
  rms(total) = 0.38889E+01    rms(broyden)= 0.38882E+01
  rms(prec ) = 0.44092E+01
  weight for this iteration     100.00

 Free energy of the ion-electron system (eV)
  ---------------------------------------------------
  alpha Z        PSCENC =      1105.13071145
  Ewald energy   TEWEN  =    -18166.13273147
  -Hartree energ DENC   =     -5956.17275416
  -exchange      EXHF   =         0.00000000
  -V(xc)+E(xc)   XCENC  =       657.14066847
  PAW double counting   =     20094.52281910   -20818.50078696
  entropy T*S    EENTRO =         0.00000000
  eigenvalues    EBANDS =     -1325.22551580
  atomic energy  EATOM  =     24304.10294433
  Solvation  Ediel_sol  =         0.00000000
  ---------------------------------------------------
  free energy    TOTEN  =      -105.13464503 eV

  energy without entropy =     -105.13464503  energy(sigma->0) =     -105.13464503


--------------------------------------------------------------------------------------------------------




--------------------------------------- Iteration      1(   6)  ---------------------------------------


    POTLOK:  cpu time      0.0428: real time      0.0437
    SETDIJ:  cpu time      0.0080: real time      0.0081
     EDDAV:  cpu time      7.1623: real time      7.3332
 BZINTS: Fermi energy:    9.178770;  156.000000 electrons
         Band energy:-0.175565E+04;  BLOECHL correction:   -0.022170
       DOS:  cpu time      0.1117: real time      0.2376
    CHARGE:  cpu time      0.1321: real time      0.1328
    MIXING:  cpu time      0.0044: real time      0.0056
    --------------------------------------------
      LOOP:  cpu time      7.4613: real time      7.7609

 eigenvalue-minimisations  : 51808
 total energy-change (2. order) :-0.7942662E+01  (-0.1711321E+02)
 number of electron     156.0000279 magnetization       7.8146884
 augmentation part       88.5298101 magnetization       5.7935349

 Broyden mixing:
  rms(total) = 0.67892E+01    rms(broyden)= 0.67889E+01
  rms(prec ) = 0.10467E+02
  weight for this iteration     100.00

 eigenvalues of (default mixing * dielectric matrix)
  average eigenvalue GAMMA=   0.2295
  0.2295

 Free energy of the ion-electron system (eV)
  ---------------------------------------------------
  alpha Z        PSCENC =      1105.13071145
  Ewald energy   TEWEN  =    -18166.13273147
  -Hartree energ DENC   =     -5539.60585006
  -exchange      EXHF   =         0.00000000
  -V(xc)+E(xc)   XCENC  =       639.39446248
  PAW double counting   =     20463.25917480   -21163.57475436
  entropy T*S    EENTRO =         0.00000000
  eigenvalues    EBANDS =     -1755.65126433
  atomic energy  EATOM  =     24304.10294433
  Solvation  Ediel_sol  =         0.00000000
  ---------------------------------------------------
  free energy    TOTEN  =      -113.07730716 eV

  energy without entropy =     -113.07730716  energy(sigma->0) =     -113.07730716


--------------------------------------------------------------------------------------------------------




--------------------------------------- Iteration      1(   7)  ---------------------------------------


    POTLOK:  cpu time      0.0356: real time      0.0432
    SETDIJ:  cpu time      0.0083: real time      0.0084
     EDDAV:  cpu time      7.3878: real time      7.5825
 BZINTS: Fermi energy:    9.880207;  156.000000 electrons
         Band energy:-0.167296E+04;  BLOECHL correction:   -0.019887
       DOS:  cpu time      0.1366: real time      0.1375
    CHARGE:  cpu time      0.1538: real time      0.1546
    MIXING:  cpu time      0.0023: real time      0.0025
    --------------------------------------------
      LOOP:  cpu time      7.7243: real time      7.9286

 eigenvalue-minimisations  : 53024
 total energy-change (2. order) : 0.5509052E+00  (-0.4576324E+02)
 number of electron     156.0000253 magnetization       7.1703662
 augmentation part       85.9272850 magnetization       6.7866108

 Broyden mixing:
  rms(total) = 0.62996E+01    rms(broyden)= 0.62992E+01
  rms(prec ) = 0.10157E+02
  weight for this iteration     100.00

 eigenvalues of (default mixing * dielectric matrix)
  average eigenvalue GAMMA=   0.2841
  0.4584  0.1098

 Free energy of the ion-electron system (eV)
  ---------------------------------------------------
  alpha Z        PSCENC =      1105.13071145
  Ewald energy   TEWEN  =    -18166.13273147
  -Hartree energ DENC   =     -5609.02613023
  -exchange      EXHF   =         0.00000000
  -V(xc)+E(xc)   XCENC  =       641.19315304
  PAW double counting   =     20749.58758931   -21464.42667811
  entropy T*S    EENTRO =         0.00000000
  eigenvalues    EBANDS =     -1672.95526031
  atomic energy  EATOM  =     24304.10294433
  Solvation  Ediel_sol  =         0.00000000
  ---------------------------------------------------
  free energy    TOTEN  =      -112.52640199 eV

  energy without entropy =     -112.52640199  energy(sigma->0) =     -112.52640199


--------------------------------------------------------------------------------------------------------




--------------------------------------- Iteration      1(   8)  ---------------------------------------


    POTLOK:  cpu time      0.0370: real time      0.0442
    SETDIJ:  cpu time      0.0082: real time      0.0083
     EDDAV:  cpu time      7.1343: real time      7.3235
 BZINTS: Fermi energy:   10.368510;  156.000000 electrons
         Band energy:-0.155866E+04;  BLOECHL correction:   -0.025591
       DOS:  cpu time      0.1375: real time      0.1384
    CHARGE:  cpu time      0.1509: real time      0.1517
    MIXING:  cpu time      0.0017: real time      0.0017
    --------------------------------------------
      LOOP:  cpu time      7.4697: real time      7.6677

 eigenvalue-minimisations  : 51744
 total energy-change (2. order) : 0.1413229E+02  (-0.1319572E+02)
 number of electron     156.0000259 magnetization       7.0112660
 augmentation part       83.7442843 magnetization       4.4053525

 Broyden mixing:
  rms(total) = 0.36441E+01    rms(broyden)= 0.36436E+01
  rms(prec ) = 0.51701E+01
  weight for this iteration     100.00

 eigenvalues of (default mixing * dielectric matrix)
  average eigenvalue GAMMA=   0.3841
  0.7362  0.3121  0.1039

 Free energy of the ion-electron system (eV)
  ---------------------------------------------------
  alpha Z        PSCENC =      1105.13071145
  Ewald energy   TEWEN  =    -18166.13273147
  -Hartree energ DENC   =     -5689.69510087
  -exchange      EXHF   =         0.00000000
  -V(xc)+E(xc)   XCENC  =       643.40707422
  PAW double counting   =     21229.78428275   -21966.33358340
  entropy T*S    EENTRO =         0.00000000
  eigenvalues    EBANDS =     -1558.65771333
  atomic energy  EATOM  =     24304.10294433
  Solvation  Ediel_sol  =         0.00000000
  ---------------------------------------------------
  free energy    TOTEN  =       -98.39411632 eV

  energy without entropy =      -98.39411632  energy(sigma->0) =      -98.39411632


--------------------------------------------------------------------------------------------------------




--------------------------------------- Iteration      1(   9)  ---------------------------------------


    POTLOK:  cpu time      0.0366: real time      0.0439
    SETDIJ:  cpu time      0.0082: real time      0.0082
     EDDAV:  cpu time      7.0803: real time      7.2698
 BZINTS: Fermi energy:   10.469709;  156.000000 electrons
         Band energy:-0.156994E+04;  BLOECHL correction:   -0.019009
       DOS:  cpu time      0.1370: real time      0.1379
    CHARGE:  cpu time      0.1541: real time      0.1552
    MIXING:  cpu time      0.0017: real time      0.0017
    --------------------------------------------
      LOOP:  cpu time      7.4179: real time      7.6168

 eigenvalue-minimisations  : 51456
 total energy-change (2. order) :-0.5736495E+01  (-0.1998624E+02)
 number of electron     156.0000245 magnetization       6.2856838
 augmentation part       83.8632734 magnetization       6.0466746

 Broyden mixing:
  rms(total) = 0.52067E+01    rms(broyden)= 0.52062E+01
  rms(prec ) = 0.75304E+01
  weight for this iteration     100.00

 eigenvalues of (default mixing * dielectric matrix)
  average eigenvalue GAMMA=   0.4601
  1.2390  0.4017  0.1020  0.0977

 Free energy of the ion-electron system (eV)
  ---------------------------------------------------
  alpha Z        PSCENC =      1105.13071145
  Ewald energy   TEWEN  =    -18166.13273147
  -Hartree energ DENC   =     -5678.50293367
  -exchange      EXHF   =         0.00000000
  -V(xc)+E(xc)   XCENC  =       642.81956814
  PAW double counting   =     21409.80609517   -22151.41620208
  entropy T*S    EENTRO =         0.00000000
  eigenvalues    EBANDS =     -1569.93806296
  atomic energy  EATOM  =     24304.10294433
  Solvation  Ediel_sol  =         0.00000000
  ---------------------------------------------------
  free energy    TOTEN  =      -104.13061110 eV

  energy without entropy =     -104.13061110  energy(sigma->0) =     -104.13061110


--------------------------------------------------------------------------------------------------------




--------------------------------------- Iteration      1(  10)  ---------------------------------------


    POTLOK:  cpu time      0.0367: real time      0.0441
    SETDIJ:  cpu time      0.0083: real time      0.0084
     EDDAV:  cpu time      7.3667: real time      7.5196
 BZINTS: Fermi energy:    9.914818;  156.000000 electrons
         Band energy:-0.160480E+04;  BLOECHL correction:   -0.016761
       DOS:  cpu time      0.1374: real time      0.1386
    CHARGE:  cpu time      0.1521: real time      0.1529
    MIXING:  cpu time      0.0018: real time      0.0023
    --------------------------------------------
      LOOP:  cpu time      7.7030: real time      7.8659

 eigenvalue-minimisations  : 52512
 total energy-change (2. order) : 0.7436745E+01  (-0.9916619E+01)
 number of electron     156.0000252 magnetization       6.1079193
 augmentation part       84.8319785 magnetization       4.8247599

 Broyden mixing:
  rms(total) = 0.34283E+01    rms(broyden)= 0.34280E+01
  rms(prec ) = 0.56287E+01
  weight for this iteration     100.00

 eigenvalues of (default mixing * dielectric matrix)
  average eigenvalue GAMMA=   0.3927
  1.2364  0.3981  0.1170  0.1170  0.0951

 Free energy of the ion-electron system (eV)
  ---------------------------------------------------
  alpha Z        PSCENC =      1105.13071145
  Ewald energy   TEWEN  =    -18166.13273147
  -Hartree energ DENC   =     -5629.23756601
  -exchange      EXHF   =         0.00000000
  -V(xc)+E(xc)   XCENC  =       640.51733995
  PAW double counting   =     21662.88695892   -22409.16535460
  entropy T*S    EENTRO =         0.00000000
  eigenvalues    EBANDS =     -1604.79616866
  atomic energy  EATOM  =     24304.10294433
  Solvation  Ediel_sol  =         0.00000000
  ---------------------------------------------------
  free energy    TOTEN  =       -96.69386609 eV

  energy without entropy =      -96.69386609  energy(sigma->0) =      -96.69386609


--------------------------------------------------------------------------------------------------------




--------------------------------------- Iteration      1(  11)  ---------------------------------------


    POTLOK:  cpu time      0.0372: real time      0.0437
    SETDIJ:  cpu time      0.0081: real time      0.0082
     EDDAV:  cpu time      7.1914: real time      7.3848
 BZINTS: Fermi energy:    9.851319;  156.000000 electrons
         Band energy:-0.160407E+04;  BLOECHL correction:   -0.022482
       DOS:  cpu time      0.1371: real time      0.1380
    CHARGE:  cpu time      0.1535: real time      0.1543
    MIXING:  cpu time      0.0019: real time      0.0019
    --------------------------------------------
      LOOP:  cpu time      7.5293: real time      7.7309

 eigenvalue-minimisations  : 51648
 total energy-change (2. order) : 0.4958268E+01  (-0.3161266E+01)
 number of electron     156.0000253 magnetization       6.0977189
 augmentation part       84.7624622 magnetization       4.4395374

 Broyden mixing:
  rms(total) = 0.12820E+01    rms(broyden)= 0.12816E+01
  rms(prec ) = 0.16281E+01
  weight for this iteration     100.00

 eigenvalues of (default mixing * dielectric matrix)
  average eigenvalue GAMMA=   0.3787
  1.2435  0.3569  0.3569  0.1301  0.0993  0.0852

 Free energy of the ion-electron system (eV)
  ---------------------------------------------------
  alpha Z        PSCENC =      1105.13071145
  Ewald energy   TEWEN  =    -18166.13273147
  -Hartree energ DENC   =     -5623.82159382
  -exchange      EXHF   =         0.00000000
  -V(xc)+E(xc)   XCENC  =       640.31930703
  PAW double counting   =     21704.62877315   -22451.89692890
  entropy T*S    EENTRO =         0.00000000
  eigenvalues    EBANDS =     -1604.06608035
  atomic energy  EATOM  =     24304.10294433
  Solvation  Ediel_sol  =         0.00000000
  ---------------------------------------------------
  free energy    TOTEN  =       -91.73559857 eV

  energy without entropy =      -91.73559857  energy(sigma->0) =      -91.73559857


--------------------------------------------------------------------------------------------------------




--------------------------------------- Iteration      1(  12)  ---------------------------------------


    POTLOK:  cpu time      0.0367: real time      0.0445
    SETDIJ:  cpu time      0.0079: real time      0.0080
     EDDAV:  cpu time      7.2663: real time      7.4350
 BZINTS: Fermi energy:    9.880356;  156.000000 electrons
         Band energy:-0.160050E+04;  BLOECHL correction:   -0.022140
       DOS:  cpu time      0.1371: real time      0.1380
    CHARGE:  cpu time      0.1533: real time      0.1542
    MIXING:  cpu time      0.0018: real time      0.0019
    --------------------------------------------
      LOOP:  cpu time      7.6032: real time      7.7815

 eigenvalue-minimisations  : 51968
 total energy-change (2. order) :-0.1143675E+01  (-0.8658768E+00)
 number of electron     156.0000252 magnetization       6.1380826
 augmentation part       84.6706466 magnetization       4.3624137

 Broyden mixing:
  rms(total) = 0.14549E+01    rms(broyden)= 0.14547E+01
  rms(prec ) = 0.19048E+01
  weight for this iteration     100.00

 eigenvalues of (default mixing * dielectric matrix)
  average eigenvalue GAMMA=   0.3384
  1.2395  0.3238  0.3238  0.2016  0.1032  0.1032  0.0733

 Free energy of the ion-electron system (eV)
  ---------------------------------------------------
  alpha Z        PSCENC =      1105.13071145
  Ewald energy   TEWEN  =    -18166.13273147
  -Hartree energ DENC   =     -5627.11026882
  -exchange      EXHF   =         0.00000000
  -V(xc)+E(xc)   XCENC  =       640.94928095
  PAW double counting   =     21746.14956438   -22495.47161728
  entropy T*S    EENTRO =         0.00000000
  eigenvalues    EBANDS =     -1600.49715719
  atomic energy  EATOM  =     24304.10294433
  Solvation  Ediel_sol  =         0.00000000
  ---------------------------------------------------
  free energy    TOTEN  =       -92.87927364 eV

  energy without entropy =      -92.87927364  energy(sigma->0) =      -92.87927364


--------------------------------------------------------------------------------------------------------




--------------------------------------- Iteration      1(  13)  ---------------------------------------


    POTLOK:  cpu time      0.0362: real time      0.0439
    SETDIJ:  cpu time      0.0081: real time      0.0081
     EDDAV:  cpu time      6.9553: real time      7.1326
 BZINTS: Fermi energy:    9.893755;  156.000000 electrons
         Band energy:-0.159929E+04;  BLOECHL correction:   -0.020262
       DOS:  cpu time      0.1380: real time      0.1388
    CHARGE:  cpu time      0.1530: real time      0.1538
    MIXING:  cpu time      0.0018: real time      0.0019
    --------------------------------------------
      LOOP:  cpu time      7.2924: real time      7.4791

 eigenvalue-minimisations  : 50976
 total energy-change (2. order) : 0.4114008E+00  (-0.4231467E+00)
 number of electron     156.0000251 magnetization       6.2912497
 augmentation part       84.6580830 magnetization       4.4724035

 Broyden mixing:
  rms(total) = 0.93898E+00    rms(broyden)= 0.93888E+00
  rms(prec ) = 0.10218E+01
  weight for this iteration     100.00

 eigenvalues of (default mixing * dielectric matrix)
  average eigenvalue GAMMA=   0.3874
  1.2739  0.5335  0.5335  0.3539  0.1225  0.0807  0.1007  0.1007

 Free energy of the ion-electron system (eV)
  ---------------------------------------------------
  alpha Z        PSCENC =      1105.13071145
  Ewald energy   TEWEN  =    -18166.13273147
  -Hartree energ DENC   =     -5627.65907396
  -exchange      EXHF   =         0.00000000
  -V(xc)+E(xc)   XCENC  =       641.10814487
  PAW double counting   =     21756.60332192   -22506.32760444
  entropy T*S    EENTRO =         0.00000000
  eigenvalues    EBANDS =     -1599.29358558
  atomic energy  EATOM  =     24304.10294433
  Solvation  Ediel_sol  =         0.00000000
  ---------------------------------------------------
  free energy    TOTEN  =       -92.46787288 eV

  energy without entropy =      -92.46787288  energy(sigma->0) =      -92.46787288


--------------------------------------------------------------------------------------------------------




--------------------------------------- Iteration      1(  14)  ---------------------------------------


    POTLOK:  cpu time      0.0357: real time      0.0442
    SETDIJ:  cpu time      0.0086: real time      0.0086
     EDDAV:  cpu time      7.2636: real time      7.4047
[...]
    113      24.4494      0.00000
    114      24.8698      0.00000
    115      24.9237      0.00000
    116      25.1778      0.00000
    117      25.3438      0.00000
    118      26.0922      0.00000
    119      26.2401      0.00000
    120      27.5369      0.00000
    121      27.5742      0.00000
    122      27.6110      0.00000
    123      28.0665      0.00000
    124      28.7907      0.00000
    125      29.0935      0.00000
    126      29.2782      0.00000
    127      29.5156      0.00000
    128      30.0699      0.00000


--------------------------------------------------------------------------------------------------------


 soft charge-density along one line, spin component           1
         0         1         2         3         4         5         6         7         8         9
 total charge-density along one line
 
 soft charge-density along one line, spin component           2
         0         1         2         3         4         5         6         7         8         9
 total charge-density along one line
 
 pseudopotential strength for first ion, spin component:           1
-42.849   0.000  -0.000   6.721  -0.000   0.000   0.000   0.002
  0.000 -42.886   0.000  -0.000   6.736  -0.000   0.000   0.000
 -0.000   0.000 -42.818   0.000  -0.000   6.707   0.000   0.000
  6.721  -0.000   0.000   5.883  -0.000   0.000   0.000  -0.001
 -0.000   6.736  -0.000  -0.000   5.878  -0.000  -0.000  -0.000
  0.000  -0.000   6.707   0.000  -0.000   5.885  -0.000  -0.000
  0.000   0.000   0.000   0.000  -0.000  -0.000  -0.389   0.000
  0.002   0.000   0.000  -0.001  -0.000  -0.000   0.000  -0.388
 -0.000   0.002   0.000   0.000   0.000  -0.000   0.000   0.000
  0.000  -0.000  -0.006  -0.000   0.000   0.005   0.000  -0.000
 -0.000  -0.004  -0.000   0.000   0.003   0.000  -0.000  -0.000
 -0.000   0.000   0.000   0.000  -0.000  -0.000  -0.930   0.000
  0.002   0.000   0.000  -0.001  -0.000  -0.000   0.000  -0.929
 -0.000   0.002   0.000   0.000   0.000  -0.000   0.000   0.000
  0.000  -0.000  -0.006  -0.000   0.000   0.005   0.000  -0.000
 -0.000  -0.004  -0.000   0.000   0.003   0.000  -0.000  -0.000
 -0.000   0.002  -0.000  -0.000   0.001   0.000   0.000  -0.000
 -0.000   0.006   0.000  -0.000   0.004  -0.000   0.000  -0.000
 pseudopotential strength for first ion, spin component:           2
-44.958   0.000  -0.000   7.609  -0.000   0.000   0.000   0.005
  0.000 -45.032   0.000  -0.000   7.638  -0.000   0.000   0.000
 -0.000   0.000 -44.857   0.000  -0.000   7.567   0.000   0.000
  7.609  -0.000   0.000   5.632  -0.000   0.000  -0.000  -0.003
 -0.000   7.638  -0.000  -0.000   5.626  -0.000  -0.000  -0.000
  0.000  -0.000   7.567   0.000  -0.000   5.640  -0.000  -0.000
  0.000   0.000   0.000  -0.000  -0.000  -0.000  -2.006   0.000
  0.005   0.000   0.000  -0.003  -0.000  -0.000   0.000  -2.176
 -0.000   0.014   0.000   0.000  -0.007  -0.000   0.000   0.000
  0.000  -0.000   0.024  -0.000  -0.000  -0.011   0.000  -0.000
 -0.000   0.010   0.000   0.000  -0.004   0.000  -0.000  -0.000
 -0.000   0.000   0.000  -0.000  -0.000  -0.000  -2.520   0.000
  0.005   0.000   0.000  -0.003  -0.000  -0.000   0.000  -2.688
 -0.000   0.014   0.000   0.000  -0.007   0.000   0.000   0.000
  0.000  -0.000   0.024  -0.000  -0.000  -0.011   0.000  -0.000
 -0.000   0.009   0.000   0.000  -0.004   0.000  -0.000  -0.000
 -0.000  -0.005  -0.000  -0.000   0.004  -0.000   0.000  -0.000
 -0.000  -0.013   0.000  -0.000   0.009  -0.000   0.000  -0.000
 total augmentation occupancy for first ion, spin component:           1
  1.992   0.000   0.000  -0.027  -0.000   0.000   0.000  -0.006  -0.000   0.000   0.000   0.000   0.007   0.000   0.000   0.000
  0.000   1.992  -0.000   0.000  -0.028   0.000   0.000   0.000  -0.004   0.000   0.003   0.000   0.000   0.004   0.000  -0.003
  0.000  -0.000   1.992   0.000   0.000  -0.027   0.000  -0.000   0.000  -0.001  -0.000  -0.000  -0.000   0.000   0.001  -0.000
 -0.027   0.000   0.000   0.187   0.000   0.000   0.000  -0.019   0.000   0.000   0.000   0.000   0.024   0.000  -0.000   0.000
 -0.000  -0.028   0.000   0.000   0.187   0.000   0.000  -0.000  -0.010  -0.000   0.017   0.000   0.000   0.004   0.000  -0.028
  0.000   0.000  -0.027   0.000   0.000   0.166   0.000   0.000  -0.000   0.012  -0.000   0.000   0.000   0.000  -0.033   0.000
  0.000   0.000   0.000   0.000   0.000   0.000   2.737  -0.000  -0.000   0.000  -0.000  -1.487  -0.000   0.000   0.000   0.000
 -0.006   0.000  -0.000  -0.019  -0.000   0.000  -0.000   2.927   0.000   0.000  -0.000  -0.000  -2.002   0.000   0.000  -0.000
 -0.000  -0.004   0.000   0.000  -0.010  -0.000  -0.000   0.000   3.297   0.000   0.227   0.000  -0.000  -1.893   0.000  -0.123
  0.000   0.000  -0.001   0.000  -0.000   0.012   0.000   0.000   0.000   2.616   0.000   0.000   0.000   0.000  -1.415   0.000
  0.000   0.003  -0.000   0.000   0.017  -0.000  -0.000  -0.000   0.227   0.000   2.992   0.000  -0.000  -0.124   0.000  -1.714
  0.000   0.000  -0.000   0.000   0.000   0.000  -1.487  -0.000   0.000   0.000   0.000   1.672  -0.000  -0.000   0.000   0.000
  0.007   0.000  -0.000   0.024   0.000   0.000  -0.000  -2.002  -0.000   0.000  -0.000  -0.000   2.321   0.000   0.000   0.000
  0.000   0.004   0.000   0.000   0.004   0.000   0.000   0.000  -1.893   0.000  -0.124  -0.000   0.000   1.802   0.000   0.045
  0.000   0.000   0.001  -0.000   0.000  -0.033   0.000   0.000   0.000  -1.415   0.000   0.000   0.000   0.000   1.593   0.000
  0.000  -0.003  -0.000   0.000  -0.028   0.000   0.000  -0.000  -0.123   0.000  -1.714   0.000   0.000   0.045   0.000   1.719
  0.000  -0.001   0.000   0.000   0.001  -0.000   0.000   0.000  -0.114   0.000   0.188   0.000   0.000   0.075   0.000  -0.143
  0.000   0.001   0.000   0.000   0.000   0.000   0.000   0.000   0.012   0.000  -0.011   0.000   0.000  -0.007   0.000   0.008
 total augmentation occupancy for first ion, spin component:           2
  0.002   0.000   0.000   0.008   0.000   0.000   0.000   0.002   0.000   0.000   0.000   0.000  -0.002   0.000   0.000   0.000
  0.000   0.002   0.000   0.000   0.008   0.000  -0.000   0.000   0.005   0.000   0.004  -0.000   0.000  -0.005   0.000  -0.005
  0.000   0.000   0.002   0.000   0.000   0.008  -0.000   0.000   0.000   0.011   0.000  -0.000  -0.000   0.000  -0.012  -0.000
  0.008   0.000   0.000  -0.007   0.000   0.000   0.000   0.020   0.000  -0.000   0.000   0.000  -0.018   0.000  -0.000   0.000
  0.000   0.008   0.000   0.000  -0.002  -0.000   0.000   0.000  -0.007   0.000  -0.038   0.000   0.000  -0.007   0.000   0.015
  0.000   0.000   0.008   0.000  -0.000  -0.003  -0.000   0.000   0.000  -0.067  -0.000   0.000   0.000   0.000   0.015  -0.000
  0.000  -0.000  -0.000   0.000   0.000  -0.000  -2.055   0.000   0.000   0.000   0.000   0.921  -0.000   0.000   0.000   0.000
  0.002   0.000   0.000   0.020   0.000   0.000   0.000  -2.017   0.000   0.000  -0.000   0.000   0.693  -0.000   0.000  -0.000
  0.000   0.005   0.000   0.000  -0.007   0.000   0.000   0.000  -2.553   0.000  -0.077   0.000   0.000   1.119   0.000   0.075
  0.000   0.000   0.011  -0.000   0.000  -0.067   0.000   0.000   0.000  -1.866  -0.000   0.000  -0.000   0.000   0.683   0.000
  0.000   0.004   0.000   0.000  -0.038  -0.000   0.000  -0.000  -0.077  -0.000  -2.314   0.000   0.000   0.076   0.000   0.882
  0.000  -0.000  -0.000   0.000   0.000   0.000   0.921   0.000   0.000   0.000   0.000  -0.235   0.000  -0.000   0.000  -0.000
 -0.002   0.000  -0.000  -0.018   0.000   0.000  -0.000   0.693   0.000  -0.000   0.000   0.000   0.027   0.000   0.000   0.000
  0.000  -0.005   0.000   0.000  -0.007   0.000   0.000  -0.000   1.119   0.000   0.076  -0.000   0.000  -0.368   0.000  -0.079
  0.000   0.000  -0.012  -0.000   0.000   0.015   0.000   0.000   0.000   0.683   0.000   0.000   0.000   0.000  -0.020   0.000
  0.000  -0.005  -0.000   0.000   0.015  -0.000   0.000  -0.000   0.075   0.000   0.882  -0.000   0.000  -0.079   0.000  -0.136
  0.000  -0.002   0.000   0.000  -0.017   0.000   0.000   0.000   0.000   0.000  -0.043   0.000   0.000  -0.015   0.000   0.037
  0.000   0.000  -0.000   0.000  -0.000  -0.000   0.000   0.000  -0.008   0.000   0.004   0.000   0.000   0.002   0.000  -0.001


------------------------ aborting loop because EDIFF is reached ----------------------------------------





 total charge

# of ion       s       p       d       tot
------------------------------------------
    1        0.354   6.336   6.036  12.725
    2        0.350   6.330   6.048  12.728
    3        0.350   6.329   6.024  12.703
    4        0.357   6.338   6.021  12.716
    5        0.355   6.336   6.026  12.717
    6        0.351   6.334   6.025  12.709
    7        0.354   6.336   6.036  12.725
    8        0.350   6.330   6.048  12.728
    9        0.350   6.329   6.024  12.703
   10        0.775   0.705   8.033   9.513
   11        0.779   0.701   8.039   9.518
   12        0.764   0.718   8.033   9.515
--------------------------------------------------
tot          5.489  59.120  78.390 143.000



 magnetization (x)

# of ion       s       p       d       tot
------------------------------------------
    1       -0.013  -0.006  -2.467  -2.486
    2        0.002  -0.012   2.602   2.592
    3        0.009   0.002   2.547   2.559
    4       -0.017  -0.021  -2.511  -2.550
    5        0.015   0.022   2.500   2.536
    6        0.002  -0.014   2.743   2.731
    7       -0.013  -0.006  -2.467  -2.486
    8        0.002  -0.012   2.602   2.592
    9        0.009   0.002   2.547   2.559
   10        0.008   0.013  -0.066  -0.045
   11       -0.009  -0.017   0.084   0.058
   12       -0.039  -0.097   0.407   0.271
--------------------------------------------------
tot         -0.045  -0.147   8.522   8.330
 
    CHARGE:  cpu time      0.1541: real time      0.1550
    FORLOC:  cpu time      0.0017: real time      0.0019
    FORNL :  cpu time      0.7168: real time      0.8489
    STRESS:  cpu time      4.3875: real time      4.4223
    FORCOR:  cpu time      0.0207: real time      0.0208
    FORHAR:  cpu time      0.0026: real time      0.0026
    MIXING:  cpu time      0.0144: real time      0.0144
    OFIELD:  cpu time      0.0002: real time      0.0002

  FORCE on cell =-STRESS in cart. coord.  units (eV):
  Direction    XX          YY          ZZ          XY          YZ          ZX
  --------------------------------------------------------------------------------------
  Alpha Z  1105.13071  1105.13071  1105.13071
  Ewald   -6047.30975 -6047.30975 -6071.53687     0.00000     0.00000     0.00000
  Hartree  1877.38368  1877.38368  1855.39989    -0.00000    -0.00000    -0.00000
  E(xc)    -943.87931  -943.87931  -943.82040    -0.00000    -0.00000     0.00000
  Local    1086.11120  1086.11120  1138.91500     0.00000    -0.00000     0.00000
  n-local  -212.02433  -226.15830  -219.46048    14.61763     0.14145     0.19009
  augment  1440.01434  1440.01434  1435.82242     0.00000    -0.00000    -0.00000
  Kinetic  1709.33589  1693.29221  1699.08201     3.13381     0.03705     0.00828
  Fock        0.00000     0.00000     0.00000     0.00000     0.00000     0.00000
  -------------------------------------------------------------------------------------
  Total      -0.32639    -0.32639    -0.46773     0.00000     0.00000     0.00000
  in kB      -3.39570    -3.39570    -4.86619     0.00000     0.00000     0.00000
  external pressure =       -3.89 kB  Pullay stress =        0.00 kB


 VOLUME and BASIS-vectors are now :
 -----------------------------------------------------------------------------
  energy-cutoff  :      520.00
  volume of cell :      154.00
      direct lattice vectors                 reciprocal lattice vectors
     3.700099101  0.000000000  0.000000000     0.270263032  0.000000000  0.000000000
     0.000000000  3.700099101  0.000000000     0.000000000  0.270263032  0.000000000
     0.000000000  0.000000000 11.248484355     0.000000000  0.000000000  0.088900866

  length of vectors
     3.700099101  3.700099101 11.248484355     0.270263032  0.270263032  0.088900866


 FORCES acting on ions
    electron-ion (+dipol)            ewald-force                    non-local-force                 convergence-correction
 -----------------------------------------------------------------------------------------------
   -.695E-13 0.138E-11 0.239E+01   -.871E-14 0.306E-13 -.334E+01   -.407E-18 -.113E-17 0.931E+00   -.375E-13 -.461E-13 -.177E-02
   -.682E-13 0.120E-11 -.255E+02   -.783E-14 0.199E-13 0.258E+02   -.796E-19 0.293E-20 -.370E+00   -.450E-13 -.318E-13 -.218E-02
   -.620E-13 0.126E-11 0.182E+01   -.152E-13 0.287E-13 -.307E+01   0.160E-18 -.332E-17 0.124E+01   -.716E-13 -.243E-13 0.360E-02
   0.112E-11 -.394E-11 0.707E+02   0.367E-13 0.380E-13 -.682E+02   0.113E-17 0.976E-18 -.247E+01   -.734E-13 -.152E-13 -.325E-02
   0.113E-11 0.733E-11 0.427E+02   -.592E-13 0.519E-13 -.405E+02   0.269E-18 -.347E-18 -.214E+01   -.679E-13 -.563E-14 -.938E-03
   0.113E-11 -.499E-11 -.556E+02   -.656E-14 0.237E-13 0.558E+02   -.335E-18 0.101E-20 -.150E+00   -.910E-13 -.364E-13 0.430E-02
   0.113E-11 -.191E-12 0.239E+01   0.393E-13 -.917E-14 -.334E+01   0.283E-18 0.658E-18 0.931E+00   -.131E-12 -.278E-13 -.177E-02
   0.111E-11 0.237E-13 -.255E+02   -.149E-13 -.419E-14 0.258E+02   -.172E-18 0.675E-19 -.370E+00   -.128E-12 -.398E-13 -.218E-02
   0.110E-11 -.118E-12 0.182E+01   0.191E-13 -.313E-13 -.307E+01   0.248E-17 -.122E-18 0.124E+01   -.108E-12 -.330E-13 0.360E-02
   -.500E-13 -.591E-13 0.190E+02   -.591E-13 -.397E-13 -.194E+02   0.992E-18 0.665E-18 0.307E+00   0.262E-13 -.136E-13 -.232E-02
   -.485E-13 -.691E-13 -.794E+01   0.636E-13 -.462E-13 0.781E+01   0.819E-18 -.758E-18 0.133E+00   0.189E-13 -.155E-13 -.503E-03
   -.458E-13 -.609E-13 -.259E+02   0.712E-14 -.114E-13 0.257E+02   0.206E-18 -.630E-18 0.228E+00   0.277E-13 -.118E-13 0.296E-02
 -----------------------------------------------------------------------------------------------
   0.638E-11 0.176E-11 0.499E+00   -.572E-14 0.508E-13 -.419E-12   0.535E-17 -.394E-17 -.495E+00   -.681E-12 -.301E-12 -.450E-03
 
 
 POSITION                                       TOTAL-FORCE (eV/Angst)
 -----------------------------------------------------------------------------------
      0.00000      1.85005      1.87513        -0.000000      0.000000     -0.012706
      0.00000      1.85005      5.61490        -0.000000      0.000000     -0.002921
      0.00000      1.85005      9.37664        -0.000000     -0.000000     -0.007371
      1.85005      1.85005      0.05679        -0.000000      0.000000      0.026664
      1.85005      1.85005      3.80013         0.000000     -0.000000      0.011913
      1.85005      1.85005      7.46890         0.000000     -0.000000     -0.005653
      1.85005      0.00000      1.87513         0.000000      0.000000     -0.012706
      1.85005      0.00000      5.61490         0.000000     -0.000000     -0.002921
      1.85005      0.00000      9.37664        -0.000000     -0.000000     -0.007371
      0.00000      0.00000     11.23010        -0.000000     -0.000000     -0.002785
      0.00000      0.00000      3.70658        -0.000000     -0.000000      0.005241
      0.00000      0.00000      7.49507        -0.000000     -0.000000      0.010618
 -----------------------------------------------------------------------------------
    total drift:                                0.000000      0.000000      0.003575


--------------------------------------------------------------------------------------------------------



  FREE ENERGIE OF THE ION-ELECTRON SYSTEM (eV)
  ---------------------------------------------------
  free  energy   TOTEN  =       -93.36215066 eV

  energy  without entropy=      -93.36215066  energy(sigma->0) =      -93.36215066
 


--------------------------------------------------------------------------------------------------------


    POTLOK:  cpu time      0.0374: real time      0.0381


--------------------------------------------------------------------------------------------------------


     LOOP+:  cpu time    233.7018: real time    240.0878
 -----------------------------------------------------------------------------
|                                                                             |
|           W    W    AA    RRRRR   N    N  II  N    N   GGGG   !!!           |
|           W    W   A  A   R    R  NN   N  II  NN   N  G    G  !!!           |
|           W    W  A    A  R    R  N N  N  II  N N  N  G       !!!           |
|           W WW W  AAAAAA  RRRRR   N  N N  II  N  N N  G  GGG   !            |
|           WW  WW  A    A  R   R   N   NN  II  N   NN  G    G                |
|           W    W  A    A  R    R  N    N  II  N    N   GGGG   !!!           |
|                                                                             |
|     Tetrahedron method does not include variations of the Fermi             |
|     occupations, so forces and stress will be inaccurate. We suggest        |
|     using a different smearing scheme ISMEAR = 1 or 2 for metals in         |
|     relaxations.                                                            |
|                                                                             |
 -----------------------------------------------------------------------------

    4ORBIT:  cpu time      0.0000: real time      0.0000



 total charge

# of ion       s       p       d       tot
------------------------------------------
    1        0.354   6.336   6.036  12.725
    2        0.350   6.330   6.048  12.728
    3        0.350   6.329   6.024  12.703
    4        0.357   6.338   6.021  12.716
    5        0.355   6.336   6.026  12.717
    6        0.351   6.334   6.025  12.709
    7        0.354   6.336   6.036  12.725
    8        0.350   6.330   6.048  12.728
    9        0.350   6.329   6.024  12.703
   10        0.775   0.705   8.033   9.513
   11        0.779   0.701   8.039   9.518
   12        0.764   0.718   8.033   9.515
--------------------------------------------------
tot          5.489  59.120  78.390 143.000



 magnetization (x)

# of ion       s       p       d       tot
------------------------------------------
    1       -0.013  -0.006  -2.467  -2.486
    2        0.002  -0.012   2.602   2.592
    3        0.009   0.002   2.547   2.559
    4       -0.017  -0.021  -2.511  -2.550
    5        0.015   0.022   2.500   2.536
    6        0.002  -0.014   2.743   2.731
    7       -0.013  -0.006  -2.467  -2.486
    8        0.002  -0.012   2.602   2.592
    9        0.009   0.002   2.547   2.559
   10        0.008   0.013  -0.066  -0.045
   11       -0.009  -0.017   0.084   0.058
   12       -0.039  -0.097   0.407   0.271
--------------------------------------------------
tot         -0.045  -0.147   8.522   8.330
 
 BZINTS: Fermi energy:   10.002001;  156.000000 electrons
         Band energy:-0.160925E+04;  BLOECHL correction:   -0.020261

 total amount of memory used by VASP MPI-rank0   187771. kBytes
=======================================================================

   base      :      30000. kBytes
   nonl-proj :     102217. kBytes
   fftplans  :        888. kBytes
   grid      :       6813. kBytes
   one-center:        373. kBytes
   wavefun   :      47480. kBytes
 
  
  
 General timing and accounting informations for this job:
 ========================================================
  
                  Total CPU time used (sec):      252.640
                            User time (sec):      243.964
                          System time (sec):        8.676
                         Elapsed time (sec):      265.819
  
                   Maximum memory used (kb):      867952.
                   Average memory used (kb):          N/A
  
                          Minor page faults:       209380
                          Major page faults:          143
                 Voluntary context switches:         8477
