 vasp.6.4.3 19Mar24 (build Mar 26 2024 14:05:37) complex                        
  
 executed on             LinuxIFC date 2024.12.16  23:11:01
 running  128 mpi-ranks, on    1 nodes
 distrk:  each k-point on   32 cores,    4 groups
 distr:  one band on NCORE=   1 cores,   32 groups


--------------------------------------------------------------------------------------------------------


 INCAR:
   ALGO = All
   EDIFF = 1e-06
   EDIFFG = -0.01
   ENCUT = 520
   GGA = Pe
   IBRION = 2
   ISIF = 4
   ISMEAR = 1
   ISPIN = 2
   KPAR = 4
   LCHARG = True
   LORBIT = 11
   LREAL = False
   LWAVE = False
   MAGMOM = 1*-2.481 1*2.6 1*2.567 1*-2.545 1*2.547 1*2.732 1*-2.481 1*2.6 1*2.567 1*-0.046 1*0.061 1*0.272
   NELM = 200
   NSW = 100
   PREC = Accurate
   SIGMA = 0.2

 POTCAR:    PAW_PBE Fe_pv 02Aug2007               
 POTCAR:    PAW_PBE Pt 04Feb2005                  
 -----------------------------------------------------------------------------
|                                                                             |
|           W    W    AA    RRRRR   N    N  II  N    N   GGGG   !!!           |
|           W    W   A  A   R    R  NN   N  II  NN   N  G    G  !!!           |
|           W    W  A    A  R    R  N N  N  II  N N  N  G       !!!           |
|           W WW W  AAAAAA  RRRRR   N  N N  II  N  N N  G  GGG   !            |
|           WW  WW  A    A  R   R   N   NN  II  N   NN  G    G                |
|           W    W  A    A  R    R  N    N  II  N    N   GGGG   !!!           |
|                                                                             |
|     For optimal performance we recommend to set                             |
|       NCORE = 2 up to number-of-cores-per-socket                            |
|     NCORE specifies how many cores store one orbital (NPAR=cpu/NCORE).      |
|     This setting can greatly improve the performance of VASP for DFT.       |
|     The default, NCORE=1 might be grossly inefficient on modern             |
|     multi-core architectures or massively parallel machines. Do your        |
|     own testing! More info at https://www.vasp.at/wiki/index.php/NCORE      |
|     Unfortunately you need to use the default for GW and RPA                |
|     calculations (for HF NCORE is supported but not extensively tested      |
|     yet).                                                                   |
|                                                                             |
 -----------------------------------------------------------------------------

 POTCAR:    PAW_PBE Fe_pv 02Aug2007               
   SHA256 =  5d22e414b1f82158bf2c7ecb8b97b28fd0923e48cadc1c3bf74d524558f5dd32 Fe_pv/POTCAR          
   COPYR  = (c) Copyright 02Aug2007 Georg Kresse                                                    
   COPYR  = This file is part of the software VASP. Any use, copying, and all other rights are regul
   COPYR  = If you do not have a valid VASP license, you may not use, copy or distribute this file. 
   VRHFIN =Fe:  3pd7s1                                                                              
   LEXCH  = PE                                                                                      
   EATOM  =  2457.4239 eV,  180.6156 Ry                                                             
                                                                                                    
   TITEL  = PAW_PBE Fe_pv 02Aug2007                                                                 
   LULTRA =        F    use ultrasoft PP ?                                                          
   IUNSCR =        1    unscreen: 0-lin 1-nonlin 2-no                                               
   RPACOR =    1.750    partial core radius                                                         
   POMASS =   55.847; ZVAL   =   14.000    mass and valenz                                          
   RCORE  =    2.200    outmost cutoff radius                                                       
   RWIGS  =    2.200; RWIGS  =    1.164    wigner-seitz radius (au A)                               
   ENMAX  =  293.238; ENMIN  =  219.928 eV                                                          
   ICORE  =        3    local potential                                                             
   LCOR   =        T    correct aug charges                                                         
   LPAW   =        T    paw PP                                                                      
   EAUG   =  578.342                                                                                
   DEXC   =    0.000                                                                                
   RMAX   =    2.249    core radius for proj-oper                                                   
   RAUG   =    1.300    factor for augmentation sphere                                              
   RDEP   =    2.296    radius for radial grids                                                     
   RDEPT  =    1.766    core radius for aug-charge                                                  
                                                                                                    
   Atomic configuration                                                                             
    8 entries                                                                                       
     n  l   j            E        occ.                                                              
     1  0  0.50     -6993.8440   2.0000                                                             
     2  0  0.50      -814.6047   2.0000                                                             
     2  1  1.50      -693.3689   6.0000                                                             
     3  0  0.50       -89.4732   2.0000                                                             
     3  1  1.50       -55.6373   6.0000                                                             
     3  2  2.50        -3.8151   7.0000                                                             
     4  0  0.50        -4.2551   1.0000                                                             
     4  3  2.50        -1.3606   0.0000                                                             
   Description                                                                                      
     l       E           TYP  RCUT    TYP  RCUT                                                     
     1    -55.6372668     23  2.000                                                                 
     1     -5.4423304     23  2.000                                                                 
     2     -3.8151096     23  2.200                                                                 
     2     -5.1756922     23  2.200                                                                 
     0     -4.2550951     23  2.200                                                                 
     0     27.2116520     23  2.200                                                                 
     3     -1.3605826     23  2.200                                                                 
  local pseudopotential read in
  partial core-charges read in
  partial kinetic energy density read in
  atomic valenz-charges read in
  non local Contribution for L=           1  read in
    real space projection operators read in
  non local Contribution for L=           1  read in
    real space projection operators read in
  non local Contribution for L=           2  read in
    real space projection operators read in
  non local Contribution for L=           2  read in
    real space projection operators read in
  non local Contribution for L=           0  read in
    real space projection operators read in
  non local Contribution for L=           0  read in
    real space projection operators read in
    PAW grid and wavefunctions read in
 
   number of l-projection  operators is LMAX  =           6
   number of lm-projection operators is LMMAX =          18
 
 POTCAR:    PAW_PBE Pt 04Feb2005                  
   SHA256 =  3ed90460adef76debcff1cfb73ee1349b515b1a3db03439735b44de3a8db7dc8 Pt/POTCAR             
   COPYR  = (c) Copyright 04Feb2005 Georg Kresse                                                    
   COPYR  = This file is part of the software VASP. Any use, copying, and all other rights are regul
   COPYR  = If you do not have a valid VASP license, you may not use, copy or distribute this file. 
   VRHFIN =Pt: s1d9                                                                                 
   LEXCH  = PE                                                                                      
   EATOM  =   729.1176 eV,   53.5886 Ry                                                             
                                                                                                    
   TITEL  = PAW_PBE Pt 04Feb2005                                                                    
   LULTRA =        F    use ultrasoft PP ?                                                          
   IUNSCR =        1    unscreen: 0-lin 1-nonlin 2-no                                               
   RPACOR =    2.330    partial core radius                                                         
   POMASS =  195.080; ZVAL   =   10.000    mass and valenz                                          
   RCORE  =    2.600    outmost cutoff radius                                                       
   RWIGS  =    2.750; RWIGS  =    1.455    wigner-seitz radius (au A)                               
   ENMAX  =  230.283; ENMIN  =  172.712 eV                                                          
   ICORE  =        3    local potential                                                             
   LCOR   =        T    correct aug charges                                                         
   LPAW   =        T    paw PP                                                                      
   EAUG   =  358.966                                                                                
   DEXC   =    0.000                                                                                
   RMAX   =    2.658    core radius for proj-oper                                                   
   RAUG   =    1.300    factor for augmentation sphere                                              
   RDEP   =    2.761    radius for radial grids                                                     
   RDEPT  =    2.203    core radius for aug-charge                                                  
                                                                                                    
   Atomic configuration                                                                             
   16 entries                                                                                       
     n  l   j            E        occ.                                                              
     1  0  0.50    -78401.1885   2.0000                                                             
     2  0  0.50    -13770.7750   2.0000                                                             
     2  1  1.50    -11931.0468   6.0000                                                             
     3  0  0.50     -3234.7234   2.0000                                                             
     3  1  1.50     -2699.2216   6.0000                                                             
     3  2  2.50     -2119.5714  10.0000                                                             
     4  0  0.50      -695.1528   2.0000                                                             
     4  1  1.50      -519.6034   6.0000                                                             
     4  2  2.50      -306.6786  10.0000                                                             
     4  3  3.50       -70.1041  14.0000                                                             
     5  0  0.50      -101.7747   2.0000                                                             
     5  1  1.50       -55.9873   6.0000                                                             
     5  2  2.50        -6.1423   9.0000                                                             
     6  0  0.50        -5.6573   1.0000                                                             
     6  1  1.50        -6.8029   0.0000                                                             
     5  3  2.50        -1.3606   0.0000                                                             
   Description                                                                                      
     l       E           TYP  RCUT    TYP  RCUT                                                     
     2     -6.1423404     23  2.500                                                                 
     2     -7.5029230     23  2.500                                                                 
     0     -5.6573207     23  2.500                                                                 
     0      0.7416693     23  2.500                                                                 
     1     -2.7211652     23  2.600                                                                 
     1     20.4087390     23  2.600                                                                 
     3     -1.3605826     23  2.500                                                                 
  local pseudopotential read in
  partial core-charges read in
  partial kinetic energy density read in
  atomic valenz-charges read in
  non local Contribution for L=           2  read in
    real space projection operators read in
  non local Contribution for L=           2  read in
    real space projection operators read in
  non local Contribution for L=           0  read in
    real space projection operators read in
  non local Contribution for L=           0  read in
    real space projection operators read in
  non local Contribution for L=           1  read in
    real space projection operators read in
  non local Contribution for L=           1  read in
    real space projection operators read in
    PAW grid and wavefunctions read in
 
   number of l-projection  operators is LMAX  =           6
   number of lm-projection operators is LMMAX =          18
 
  PAW_PBE Fe_pv 02Aug2007               :
 energy of atom  1       EATOM=-2457.4239
 kinetic energy error for atom=    0.0062 (will be added to EATOM!!)
  PAW_PBE Pt 04Feb2005                  :
 energy of atom  2       EATOM= -729.1176
 kinetic energy error for atom=    0.0032 (will be added to EATOM!!)
 
 
 POSCAR: Fe9 Pt3
  positions in direct lattice
  velocities in cartesian coordinates


 exchange-correlation table for PE
   RHO(1)=    0.500       N(1)  =     2000
   RHO(2)=  100.500       N(2)  =     4000
 


--------------------------------------------------------------------------------------------------------


 ion  position               nearest neighbor table
   1  0.000  0.500  0.167-   4 2.59   4 2.59  11 2.60  11 2.60   7 2.62   7 2.62   7 2.62   7 2.62
                            10 2.65  10 2.65   5 2.67   5 2.67
   2  0.000  0.500  0.499-   5 2.59   5 2.59   8 2.62   8 2.62   8 2.62   8 2.62   6 2.62   6 2.62
                            12 2.64  12 2.64  11 2.66  11 2.66
   3  0.000  0.500  0.834-   9 2.62   9 2.62   9 2.62   9 2.62  10 2.62  10 2.62  12 2.64  12 2.64
                             6 2.66   6 2.66   4 2.67   4 2.67
   4  0.500  0.500  0.005-   1 2.59   7 2.59   7 2.59   1 2.59  10 2.62  10 2.62  10 2.62  10 2.62
                             9 2.67   3 2.67   9 2.67   3 2.67
   5  0.500  0.500  0.338-   2 2.59   8 2.59   8 2.59   2 2.59  11 2.62  11 2.62  11 2.62  11 2.62
                             1 2.67   7 2.67   1 2.67   7 2.67
   6  0.500  0.500  0.664-  12 2.62  12 2.62  12 2.62  12 2.62   8 2.62   2 2.62   2 2.62   8 2.62
                             9 2.66   3 2.66   9 2.66   3 2.66
   7  0.500  0.000  0.167-   4 2.59   4 2.59  11 2.60  11 2.60   1 2.62   1 2.62   1 2.62   1 2.62
                            10 2.65  10 2.65   5 2.67   5 2.67
   8  0.500  0.000  0.499-   5 2.59   5 2.59   2 2.62   2 2.62   2 2.62   2 2.62   6 2.62   6 2.62
                            12 2.64  12 2.64  11 2.66  11 2.66
   9  0.500  0.000  0.834-   3 2.62   3 2.62   3 2.62   3 2.62  10 2.62  10 2.62  12 2.64  12 2.64
                             6 2.66   6 2.66   4 2.67   4 2.67
  10  0.000  0.000  0.998-   4 2.62   4 2.62   4 2.62   4 2.62   3 2.62   9 2.62   9 2.62   3 2.62
                             1 2.65   7 2.65   7 2.65   1 2.65
  11  0.000  0.000  0.329-   1 2.60   7 2.60   1 2.60   7 2.60   5 2.62   5 2.62   5 2.62   5 2.62
                             2 2.66   2 2.66   8 2.66   8 2.66
  12  0.000  0.000  0.666-   6 2.62   6 2.62   6 2.62   6 2.62   2 2.64   8 2.64   8 2.64   2 2.64
                             3 2.64   3 2.64   9 2.64   9 2.64
 
  LATTYP: Found a simple tetragonal cell.
 ALAT       =     3.7001485684
 C/A-ratio  =     3.0399275565
  
  Lattice vectors:
  
 A1 = (   3.7001485684,   0.0000000000,   0.0000000000)
 A2 = (   0.0000000000,   3.7001485684,   0.0000000000)
 A3 = (   0.0000000000,   0.0000000000,  11.2481835963)


Analysis of symmetry for initial positions (statically):
=====================================================================
 Subroutine PRICEL returns:
 Original cell was already a primitive cell.
 

 Routine SETGRP: Setting up the symmetry group for a 
 simple tetragonal supercell.


 Subroutine GETGRP returns: Found  8 space group operations
 (whereof  8 operations were pure point group operations)
 out of a pool of 16 trial point group operations.


The static configuration has the point symmetry C_4v.


Analysis of symmetry for dynamics (positions and initial velocities):
=====================================================================
 Subroutine PRICEL returns:
 Original cell was already a primitive cell.
 

 Routine SETGRP: Setting up the symmetry group for a 
 simple tetragonal supercell.


 Subroutine GETGRP returns: Found  8 space group operations
 (whereof  8 operations were pure point group operations)
 out of a pool of 16 trial point group operations.


The dynamic configuration has the point symmetry C_4v.


Analysis of structural, dynamic, and magnetic symmetry:
=====================================================================
 Subroutine PRICEL returns:
 Original cell was already a primitive cell.
 

 Routine SETGRP: Setting up the symmetry group for a 
 simple tetragonal supercell.


 Subroutine GETGRP returns: Found  8 space group operations
 (whereof  8 operations were pure point group operations)
 out of a pool of 16 trial point group operations.


The overall configuration has the point symmetry C_4v.


 Subroutine INISYM returns: Found  8 space group operations
 (whereof  8 operations are pure point group operations),
 and found     1 'primitive' translations


----------------------------------------------------------------------------------------

                                     Primitive cell                                     

  volume of cell :     154.0000

  direct lattice vectors                    reciprocal lattice vectors
     3.700148568  0.000000000  0.000000000     0.270259418  0.000000000  0.000000000
     0.000000000  3.700148568  0.000000000     0.000000000  0.270259418  0.000000000
     0.000000000  0.000000000 11.248183596     0.000000000  0.000000000  0.088903243

  length of vectors
     3.700148568  3.700148568 11.248183596     0.270259418  0.270259418  0.088903243

  position of ions in fractional coordinates (direct lattice)
     0.000000000  0.500000000  0.166713339
     0.000000000  0.500000000  0.499177045
     0.000000000  0.500000000  0.833560637
     0.500000000  0.500000000  0.005052910
     0.500000000  0.500000000  0.337832947
     0.500000000  0.500000000  0.663980090
     0.500000000  0.000000000  0.166713339
     0.500000000  0.000000000  0.499177045
     0.500000000  0.000000000  0.833560637
     0.000000000  0.000000000  0.998406547
     0.000000000  0.000000000  0.329473731
     0.000000000  0.000000000  0.666351732

  ion indices of the primitive-cell ions
   primitive index   ion index
                 1           1
                 2           2
                 3           3
                 4           4
                 5           5
                 6           6
                 7           7
                 8           8
                 9           9
                10          10
                11          11
                12          12

----------------------------------------------------------------------------------------

 
 
 KPOINTS: pymatgen with grid density = 8800 / numb

Automatic generation of k-mesh.
 Grid dimensions read from file:
 generate k-points for:   13   13    4

 Generating k-lattice:

  Cartesian coordinates                     Fractional coordinates (reciprocal lattice)
     0.020789186  0.000000000  0.000000000     0.076923077  0.000000000  0.000000000
     0.000000000  0.020789186  0.000000000     0.000000000  0.076923077  0.000000000
     0.000000000  0.000000000  0.022225811     0.000000000  0.000000000  0.250000000

  Length of vectors
     0.020789186  0.020789186  0.022225811

  Shift w.r.t. Gamma in fractional coordinates (k-lattice)
     0.000000000  0.000000000  0.000000000

 
 Subroutine IBZKPT returns following result:
 ===========================================
 
 Found     84 irreducible k-points:
 
 Following reciprocal coordinates:
            Coordinates               Weight
  0.000000  0.000000  0.000000      1.000000
  0.076923  0.000000  0.000000      4.000000
  0.153846  0.000000  0.000000      4.000000
  0.230769  0.000000  0.000000      4.000000
  0.307692  0.000000  0.000000      4.000000
  0.384615  0.000000  0.000000      4.000000
  0.461538  0.000000  0.000000      4.000000
  0.076923  0.076923  0.000000      4.000000
  0.153846  0.076923  0.000000      8.000000
  0.230769  0.076923  0.000000      8.000000
  0.307692  0.076923  0.000000      8.000000
  0.384615  0.076923  0.000000      8.000000
  0.461538  0.076923  0.000000      8.000000
  0.153846  0.153846  0.000000      4.000000
  0.230769  0.153846  0.000000      8.000000
  0.307692  0.153846  0.000000      8.000000
  0.384615  0.153846  0.000000      8.000000
  0.461538  0.153846  0.000000      8.000000
  0.230769  0.230769  0.000000      4.000000
  0.307692  0.230769  0.000000      8.000000
  0.384615  0.230769  0.000000      8.000000
  0.461538  0.230769  0.000000      8.000000
  0.307692  0.307692  0.000000      4.000000
  0.384615  0.307692  0.000000      8.000000
  0.461538  0.307692  0.000000      8.000000
  0.384615  0.384615  0.000000      4.000000
  0.461538  0.384615  0.000000      8.000000
  0.461538  0.461538  0.000000      4.000000
  0.000000  0.000000  0.250000      2.000000
  0.076923  0.000000  0.250000      8.000000
  0.153846  0.000000  0.250000      8.000000
  0.230769  0.000000  0.250000      8.000000
  0.307692  0.000000  0.250000      8.000000
  0.384615  0.000000  0.250000      8.000000
  0.461538  0.000000  0.250000      8.000000
  0.076923  0.076923  0.250000      8.000000
  0.153846  0.076923  0.250000     16.000000
  0.230769  0.076923  0.250000     16.000000
  0.307692  0.076923  0.250000     16.000000
  0.384615  0.076923  0.250000     16.000000
  0.461538  0.076923  0.250000     16.000000
  0.153846  0.153846  0.250000      8.000000
  0.230769  0.153846  0.250000     16.000000
  0.307692  0.153846  0.250000     16.000000
  0.384615  0.153846  0.250000     16.000000
  0.461538  0.153846  0.250000     16.000000
  0.230769  0.230769  0.250000      8.000000
  0.307692  0.230769  0.250000     16.000000
  0.384615  0.230769  0.250000     16.000000
  0.461538  0.230769  0.250000     16.000000
  0.307692  0.307692  0.250000      8.000000
  0.384615  0.307692  0.250000     16.000000
  0.461538  0.307692  0.250000     16.000000
  0.384615  0.384615  0.250000      8.000000
  0.461538  0.384615  0.250000     16.000000
  0.461538  0.461538  0.250000      8.000000
  0.000000  0.000000  0.500000      1.000000
  0.076923  0.000000  0.500000      4.000000
  0.153846  0.000000  0.500000      4.000000
  0.230769  0.000000  0.500000      4.000000
  0.307692  0.000000  0.500000      4.000000
  0.384615  0.000000  0.500000      4.000000
  0.461538  0.000000  0.500000      4.000000
  0.076923  0.076923  0.500000      4.000000
  0.153846  0.076923  0.500000      8.000000
  0.230769  0.076923  0.500000      8.000000
  0.307692  0.076923  0.500000      8.000000
  0.384615  0.076923  0.500000      8.000000
  0.461538  0.076923  0.500000      8.000000
  0.153846  0.153846  0.500000      4.000000
  0.230769  0.153846  0.500000      8.000000
  0.307692  0.153846  0.500000      8.000000
  0.384615  0.153846  0.500000      8.000000
  0.461538  0.153846  0.500000      8.000000
  0.230769  0.230769  0.500000      4.000000
  0.307692  0.230769  0.500000      8.000000
  0.384615  0.230769  0.500000      8.000000
  0.461538  0.230769  0.500000      8.000000
  0.307692  0.307692  0.500000      4.000000
  0.384615  0.307692  0.500000      8.000000
  0.461538  0.307692  0.500000      8.000000
  0.384615  0.384615  0.500000      4.000000
  0.461538  0.384615  0.500000      8.000000
  0.461538  0.461538  0.500000      4.000000
 
 Following cartesian coordinates:
            Coordinates               Weight
  0.000000  0.000000  0.000000      1.000000
  0.020789  0.000000  0.000000      4.000000
  0.041578  0.000000  0.000000      4.000000
  0.062368  0.000000  0.000000      4.000000
  0.083157  0.000000  0.000000      4.000000
  0.103946  0.000000  0.000000      4.000000
  0.124735  0.000000  0.000000      4.000000
  0.020789  0.020789  0.000000      4.000000
  0.041578  0.020789  0.000000      8.000000
  0.062368  0.020789  0.000000      8.000000
  0.083157  0.020789  0.000000      8.000000
  0.103946  0.020789  0.000000      8.000000
  0.124735  0.020789  0.000000      8.000000
  0.041578  0.041578  0.000000      4.000000
  0.062368  0.041578  0.000000      8.000000
  0.083157  0.041578  0.000000      8.000000
  0.103946  0.041578  0.000000      8.000000
  0.124735  0.041578  0.000000      8.000000
  0.062368  0.062368  0.000000      4.000000
  0.083157  0.062368  0.000000      8.000000
  0.103946  0.062368  0.000000      8.000000
  0.124735  0.062368  0.000000      8.000000
  0.083157  0.083157  0.000000      4.000000
  0.103946  0.083157  0.000000      8.000000
  0.124735  0.083157  0.000000      8.000000
  0.103946  0.103946  0.000000      4.000000
  0.124735  0.103946  0.000000      8.000000
  0.124735  0.124735  0.000000      4.000000
  0.000000  0.000000  0.022226      2.000000
  0.020789  0.000000  0.022226      8.000000
  0.041578  0.000000  0.022226      8.000000
  0.062368  0.000000  0.022226      8.000000
  0.083157  0.000000  0.022226      8.000000
  0.103946  0.000000  0.022226      8.000000
  0.124735  0.000000  0.022226      8.000000
  0.020789  0.020789  0.022226      8.000000
  0.041578  0.020789  0.022226     16.000000
  0.062368  0.020789  0.022226     16.000000
  0.083157  0.020789  0.022226     16.000000
  0.103946  0.020789  0.022226     16.000000
  0.124735  0.020789  0.022226     16.000000
  0.041578  0.041578  0.022226      8.000000
  0.062368  0.041578  0.022226     16.000000
  0.083157  0.041578  0.022226     16.000000
  0.103946  0.041578  0.022226     16.000000
  0.124735  0.041578  0.022226     16.000000
  0.062368  0.062368  0.022226      8.000000
  0.083157  0.062368  0.022226     16.000000
  0.103946  0.062368  0.022226     16.000000
  0.124735  0.062368  0.022226     16.000000
  0.083157  0.083157  0.022226      8.000000
  0.103946  0.083157  0.022226     16.000000
  0.124735  0.083157  0.022226     16.000000
  0.103946  0.103946  0.022226      8.000000
  0.124735  0.103946  0.022226     16.000000
  0.124735  0.124735  0.022226      8.000000
  0.000000  0.000000  0.044452      1.000000
  0.020789  0.000000  0.044452      4.000000
  0.041578  0.000000  0.044452      4.000000
  0.062368  0.000000  0.044452      4.000000
  0.083157  0.000000  0.044452      4.000000
  0.103946  0.000000  0.044452      4.000000
  0.124735  0.000000  0.044452      4.000000
  0.020789  0.020789  0.044452      4.000000
  0.041578  0.020789  0.044452      8.000000
  0.062368  0.020789  0.044452      8.000000
  0.083157  0.020789  0.044452      8.000000
  0.103946  0.020789  0.044452      8.000000
  0.124735  0.020789  0.044452      8.000000
  0.041578  0.041578  0.044452      4.000000
  0.062368  0.041578  0.044452      8.000000
  0.083157  0.041578  0.044452      8.000000
  0.103946  0.041578  0.044452      8.000000
  0.124735  0.041578  0.044452      8.000000
  0.062368  0.062368  0.044452      4.000000
  0.083157  0.062368  0.044452      8.000000
  0.103946  0.062368  0.044452      8.000000
  0.124735  0.062368  0.044452      8.000000
  0.083157  0.083157  0.044452      4.000000
  0.103946  0.083157  0.044452      8.000000
  0.124735  0.083157  0.044452      8.000000
  0.103946  0.103946  0.044452      4.000000
  0.124735  0.103946  0.044452      8.000000
  0.124735  0.124735  0.044452      4.000000
 


--------------------------------------------------------------------------------------------------------




 Dimension of arrays:
   k-points           NKPTS =     84   k-points in BZ     NKDIM =     84   number of bands    NBANDS=    128
   number of dos      NEDOS =    301   number of ions     NIONS =     12
   non local maximal  LDIM  =      6   non local SUM 2l+1 LMDIM =     18
   total plane-waves  NPLWV =  65856
   max r-space proj   IRMAX =      1   max aug-charges    IRDMAX=  26097
   dimension x,y,z NGX =    28 NGY =   28 NGZ =   84
   dimension x,y,z NGXF=    56 NGYF=   56 NGZF=  168
   support grid    NGXF=    56 NGYF=   56 NGZF=  168
   ions per type =               9   3
   NGX,Y,Z   is equivalent  to a cutoff of  12.58, 12.58, 12.42 a.u.
   NGXF,Y,Z  is equivalent  to a cutoff of  25.16, 25.16, 24.83 a.u.

 SYSTEM =  unknown system                          
 POSCAR =  Fe9 Pt3                                 

 Startparameter for this run:
   NWRITE =      2    write-flag & timer
   PREC   = accura    normal or accurate (medium, high low for compatibility)
   ISTART =      0    job   : 0-new  1-cont  2-samecut
   ICHARG =      2    charge: 1-file 2-atom 10-const
   ISPIN  =      2    spin polarized calculation?
   LNONCOLLINEAR =      F non collinear calculations
   LSORBIT =      F    spin-orbit coupling
   INIWAV =      1    electr: 0-lowe 1-rand  2-diag
   LASPH  =      F    aspherical Exc in radial PAW
 Electronic Relaxation 1
   ENCUT  =  520.0 eV  38.22 Ry    6.18 a.u.   6.88  6.88 20.91*2*pi/ulx,y,z
   ENINI  =  520.0     initial cutoff
   ENAUG  =  578.3 eV  augmentation charge cutoff
   NELM   =    200;   NELMIN=  2; NELMDL=  0     # of ELM steps 
   EDIFF  = 0.1E-05   stopping-criterion for ELM
   LREAL  =      F    real-space projection
   NLSPLINE    = F    spline interpolate recip. space projectors
   LCOMPAT=      F    compatible to vasp.4.4
   GGA_COMPAT  = T    GGA compatible to vasp.4.4-vasp.4.6
   LMAXPAW     = -100 max onsite density
   LMAXMIX     =    2 max onsite mixed and CHGCAR
   VOSKOWN=      0    Vosko Wilk Nusair interpolation
   ROPT   =    0.00000   0.00000
 Ionic relaxation
   EDIFFG = -.1E-01   stopping-criterion for IOM
   NSW    =    100    number of steps for IOM
   NBLOCK =      1;   KBLOCK =    100    inner block; outer block 
   IBRION =      2    ionic relax: 0-MD 1-quasi-New 2-CG
   NFREE  =      1    steps in history (QN), initial steepest desc. (CG)
   ISIF   =      4    stress and relaxation
   IWAVPR =     11    prediction:  0-non 1-charg 2-wave 3-comb
   ISYM   =      2    0-nonsym 1-usesym 2-fastsym
   LCORR  =      T    Harris-Foulkes like correction to forces

   POTIM  = 0.5000    time-step for ionic-motion
   TEIN   =    0.0    initial temperature
   TEBEG  =    0.0;   TEEND  =   0.0 temperature during run
   SMASS  =  -3.00    Nose mass-parameter (am)
   estimated Nose-frequenzy (Omega)   =  0.10E-29 period in steps = 0.13E+47 mass=  -0.313E-27a.u.
   SCALEE = 1.0000    scale energy and forces
   NPACO  =    256;   APACO  = 10.0  distance and # of slots for P.C.
   PSTRESS=    0.0 pullay stress

  Mass of Ions in am
   POMASS =  55.85195.08
  Ionic Valenz
   ZVAL   =  14.00 10.00
  Atomic Wigner-Seitz radii
   RWIGS  =  -1.00 -1.00
  virtual crystal weights 
   VCA    =   1.00  1.00
   NELECT =     156.0000    total number of electrons
   NUPDOWN=      -1.0000    fix difference up-down

 DOS related values:
   EMIN   =  10.00;   EMAX   =-10.00  energy-range for DOS
   EFERMI =   0.00;   METHOD = LEGACY      
   ISMEAR =     1;   SIGMA  =   0.20  broadening in eV -4-tet -1-fermi 0-gaus

 Electronic relaxation 2 (details)
   IALGO  =     58    algorithm
   LDIAG  =      T    sub-space diagonalisation (order eigenvalues)
   LSUBROT=      F    optimize rotation matrix (better conditioning)
   TURBO    =      0    0=normal 1=particle mesh
   IRESTART =      0    0=no restart 2=restart with 2 vectors
   NREBOOT  =      0    no. of reboots
   NMIN     =      0    reboot dimension
   EREF     =   0.00    reference energy to select bands
   IMIX   =      4    mixing-type and parameters
     AMIX     =   0.40;   BMIX     =  1.00
     AMIX_MAG =   1.60;   BMIX_MAG =  1.00
     AMIN     =   0.10
     WC   =   100.;   INIMIX=   1;  MIXPRE=   1;  MAXMIX= -45

 Intra band minimization:
   WEIMIN = 0.0010     energy-eigenvalue tresh-hold
   EBREAK =  0.20E-08  absolut break condition
   DEPER  =   0.30     relativ break condition  

   TIME   =   0.40     timestep for ELM

  volume/ion in A,a.u.               =      12.83        86.60
  Fermi-wavevector in a.u.,A,eV,Ry     =   1.644155  3.107003 36.779896  2.703246
  Thomas-Fermi vector in A             =   2.734169
 
 Write flags
   LWAVE        =      F    write WAVECAR
   LDOWNSAMPLE  =      F    k-point downsampling of WAVECAR
   LCHARG       =      T    write CHGCAR
   LVTOT        =      F    write LOCPOT, total local potential
   LVHAR        =      F    write LOCPOT, Hartree potential only
   WRT_POTENTIAL= false  ! write potential to hdf5 file
   LELF         =      F    write electronic localiz. function (ELF)
   LORBIT       =     11    0 simple, 1 ext, 2 COOP (PROOUT), +10 PAW based schemes


 Dipole corrections
   LMONO      =      F    monopole corrections only (constant potential shift)
   LDIPOL     =      F    correct potential (dipole corrections)
   IDIPOL     =      0    1-x, 2-y, 3-z, 4-all directions 
   EPSILON    =  1.0000000 bulk dielectric constant
   LVACPOTAV  =      F  vacuum potentials using an averaging scheme for the charge density
   VACPOTFLAT =  0.1000000 required flatness to determine vacuum potential
 Exchange correlation treatment:
   GGA     = PE    functional components
   XC_C    = 1    coefficients multiplying the functional components
   LIBXC   =     F    Libxc                    
   VOSKOWN =     0    Vosko Wilk Nusair interpolation
   LHFCALC =     F    Hartree Fock is set to
   LHFONE  =     F    Hartree Fock one center treatment
   AEXX    =    0.0000 exact exchange contribution

 Parameters of functionals:
   PE:
     No parameter
 
 Van der Waals corrections
   IVDW    =     0    specifies the selected vdW correction

 Linear response parameters
   LEPSILON=     F    determine dielectric tensor
   LRPA    =     F    only Hartree local field effects (RPA)
   LNABLA  =     F    use nabla operator in PAW spheres
   LVEL    =     F    velocity operator in full k-point grid
   CSHIFT  =0.1000    complex shift for real part using Kramers Kronig
   OMEGAMAX=  -1.0    maximum frequency
   DEG_THRESHOLD= 0.2000000E-02 threshold for treating states as degnerate
   RTIME   =   -0.100 relaxation time in fs
  (WPLASMAI=    0.000 imaginary part of plasma frequency in eV, 0.658/RTIME)
   DFIELD  = 0.0000000 0.0000000 0.0000000 field for delta impulse in time
 
  Optional k-point grid parameters
   LKPOINTS_OPT  =     F    use optional k-point grid
   KPOINTS_OPT_MODE=     1    mode for optional k-point grid
 
 Orbital magnetization related:
   ORBITALMAG=     F  switch on orbital magnetization
   LCHIMAG   =     F  perturbation theory with respect to B field
   DQ        =  0.001000  dq finite difference perturbation B field
   LLRAUG    =     F  two centre corrections for induced B field
   LBONE     =     F  B-component reconstruction in AE one-centre
   LVGVCALC  =     T  calculate vGv susceptibility
   LVGVAPPL  =     F  apply vGv susceptibility instead of pGv for G=0

 Random number generation:
   RANDOM_GENERATOR = DEFAULT
   PCG_SEED         = not used


--------------------------------------------------------------------------------------------------------


 conjugate gradient relaxation of ions
 charge density and potential will be updated during run
 spin polarized calculation
 Conjugate gradient for all bands (Freysoldt, et al. PRB 79, 241103 (2009))
 preconditioned conjugated gradient                                        
 perform sub-space diagonalisation
    before iterative eigenvector-optimisation
 modified Broyden-mixing scheme, WC =      100.0
 initial mixing is a Kerker type mixing with AMIX =  0.4000 and BMIX =      1.0000
 Hartree-type preconditioning will be used
 using additional bands           50
 reciprocal scheme for non local part
 use partial core corrections
 no Harris-corrections to forces 
 use gradient corrections 
 use of overlap-Matrix (Vanderbilt PP)
 Methfessel and Paxton  Order N= 1 SIGMA  =   0.20


--------------------------------------------------------------------------------------------------------


  energy-cutoff  :      520.00
  volume of cell :      154.00
      direct lattice vectors                 reciprocal lattice vectors
     3.700148568  0.000000000  0.000000000     0.270259418  0.000000000  0.000000000
     0.000000000  3.700148568  0.000000000     0.000000000  0.270259418  0.000000000
     0.000000000  0.000000000 11.248183596     0.000000000  0.000000000  0.088903243

  length of vectors
     3.700148568  3.700148568 11.248183596     0.270259418  0.270259418  0.088903243


 
 k-points in units of 2pi/SCALE and weight: pymatgen with grid density = 8800 / numb
   0.00000000  0.00000000  0.00000000       0.001
   0.02078919  0.00000000  0.00000000       0.006
   0.04157837  0.00000000  0.00000000       0.006
   0.06236756  0.00000000  0.00000000       0.006
   0.08315674  0.00000000  0.00000000       0.006
   0.10394593  0.00000000  0.00000000       0.006
   0.12473512  0.00000000  0.00000000       0.006
   0.02078919  0.02078919  0.00000000       0.006
   0.04157837  0.02078919  0.00000000       0.012
   0.06236756  0.02078919  0.00000000       0.012
   0.08315674  0.02078919  0.00000000       0.012
   0.10394593  0.02078919  0.00000000       0.012
   0.12473512  0.02078919  0.00000000       0.012
   0.04157837  0.04157837  0.00000000       0.006
   0.06236756  0.04157837  0.00000000       0.012
   0.08315674  0.04157837  0.00000000       0.012
   0.10394593  0.04157837  0.00000000       0.012
   0.12473512  0.04157837  0.00000000       0.012
   0.06236756  0.06236756  0.00000000       0.006
   0.08315674  0.06236756  0.00000000       0.012
   0.10394593  0.06236756  0.00000000       0.012
   0.12473512  0.06236756  0.00000000       0.012
   0.08315674  0.08315674  0.00000000       0.006
   0.10394593  0.08315674  0.00000000       0.012
   0.12473512  0.08315674  0.00000000       0.012
   0.10394593  0.10394593  0.00000000       0.006
   0.12473512  0.10394593  0.00000000       0.012
   0.12473512  0.12473512  0.00000000       0.006
   0.00000000  0.00000000  0.02222581       0.003
   0.02078919  0.00000000  0.02222581       0.012
   0.04157837  0.00000000  0.02222581       0.012
   0.06236756  0.00000000  0.02222581       0.012
   0.08315674  0.00000000  0.02222581       0.012
   0.10394593  0.00000000  0.02222581       0.012
   0.12473512  0.00000000  0.02222581       0.012
   0.02078919  0.02078919  0.02222581       0.012
   0.04157837  0.02078919  0.02222581       0.024
   0.06236756  0.02078919  0.02222581       0.024
   0.08315674  0.02078919  0.02222581       0.024
   0.10394593  0.02078919  0.02222581       0.024
   0.12473512  0.02078919  0.02222581       0.024
   0.04157837  0.04157837  0.02222581       0.012
   0.06236756  0.04157837  0.02222581       0.024
   0.08315674  0.04157837  0.02222581       0.024
   0.10394593  0.04157837  0.02222581       0.024
   0.12473512  0.04157837  0.02222581       0.024
   0.06236756  0.06236756  0.02222581       0.012
   0.08315674  0.06236756  0.02222581       0.024
   0.10394593  0.06236756  0.02222581       0.024
   0.12473512  0.06236756  0.02222581       0.024
   0.08315674  0.08315674  0.02222581       0.012
   0.10394593  0.08315674  0.02222581       0.024
   0.12473512  0.08315674  0.02222581       0.024
   0.10394593  0.10394593  0.02222581       0.012
   0.12473512  0.10394593  0.02222581       0.024
   0.12473512  0.12473512  0.02222581       0.012
   0.00000000  0.00000000  0.04445162       0.001
   0.02078919  0.00000000  0.04445162       0.006
   0.04157837  0.00000000  0.04445162       0.006
   0.06236756  0.00000000  0.04445162       0.006
   0.08315674  0.00000000  0.04445162       0.006
   0.10394593  0.00000000  0.04445162       0.006
   0.12473512  0.00000000  0.04445162       0.006
   0.02078919  0.02078919  0.04445162       0.006
   0.04157837  0.02078919  0.04445162       0.012
   0.06236756  0.02078919  0.04445162       0.012
   0.08315674  0.02078919  0.04445162       0.012
   0.10394593  0.02078919  0.04445162       0.012
   0.12473512  0.02078919  0.04445162       0.012
   0.04157837  0.04157837  0.04445162       0.006
   0.06236756  0.04157837  0.04445162       0.012
   0.08315674  0.04157837  0.04445162       0.012
   0.10394593  0.04157837  0.04445162       0.012
   0.12473512  0.04157837  0.04445162       0.012
   0.06236756  0.06236756  0.04445162       0.006
   0.08315674  0.06236756  0.04445162       0.012
   0.10394593  0.06236756  0.04445162       0.012
   0.12473512  0.06236756  0.04445162       0.012
   0.08315674  0.08315674  0.04445162       0.006
   0.10394593  0.08315674  0.04445162       0.012
   0.12473512  0.08315674  0.04445162       0.012
   0.10394593  0.10394593  0.04445162       0.006
   0.12473512  0.10394593  0.04445162       0.012
   0.12473512  0.12473512  0.04445162       0.006
 
 k-points in reciprocal lattice and weights: pymatgen with grid density = 8800 / numb
   0.00000000  0.00000000  0.00000000       0.001
   0.07692308  0.00000000  0.00000000       0.006
   0.15384615  0.00000000  0.00000000       0.006
   0.23076923  0.00000000  0.00000000       0.006
   0.30769231  0.00000000  0.00000000       0.006
   0.38461538  0.00000000  0.00000000       0.006
   0.46153846  0.00000000  0.00000000       0.006
   0.07692308  0.07692308  0.00000000       0.006
   0.15384615  0.07692308  0.00000000       0.012
   0.23076923  0.07692308  0.00000000       0.012
   0.30769231  0.07692308  0.00000000       0.012
   0.38461538  0.07692308  0.00000000       0.012
   0.46153846  0.07692308  0.00000000       0.012
   0.15384615  0.15384615  0.00000000       0.006
   0.23076923  0.15384615  0.00000000       0.012
   0.30769231  0.15384615  0.00000000       0.012
   0.38461538  0.15384615  0.00000000       0.012
   0.46153846  0.15384615  0.00000000       0.012
   0.23076923  0.23076923  0.00000000       0.006
   0.30769231  0.23076923  0.00000000       0.012
   0.38461538  0.23076923  0.00000000       0.012
   0.46153846  0.23076923  0.00000000       0.012
   0.30769231  0.30769231  0.00000000       0.006
   0.38461538  0.30769231  0.00000000       0.012
   0.46153846  0.30769231  0.00000000       0.012
   0.38461538  0.38461538  0.00000000       0.006
   0.46153846  0.38461538  0.00000000       0.012
   0.46153846  0.46153846  0.00000000       0.006
   0.00000000  0.00000000  0.25000000       0.003
   0.07692308  0.00000000  0.25000000       0.012
   0.15384615  0.00000000  0.25000000       0.012
   0.23076923  0.00000000  0.25000000       0.012
   0.30769231  0.00000000  0.25000000       0.012
   0.38461538  0.00000000  0.25000000       0.012
   0.46153846  0.00000000  0.25000000       0.012
   0.07692308  0.07692308  0.25000000       0.012
   0.15384615  0.07692308  0.25000000       0.024
   0.23076923  0.07692308  0.25000000       0.024
   0.30769231  0.07692308  0.25000000       0.024
   0.38461538  0.07692308  0.25000000       0.024
   0.46153846  0.07692308  0.25000000       0.024
   0.15384615  0.15384615  0.25000000       0.012
   0.23076923  0.15384615  0.25000000       0.024
   0.30769231  0.15384615  0.25000000       0.024
   0.38461538  0.15384615  0.25000000       0.024
   0.46153846  0.15384615  0.25000000       0.024
   0.23076923  0.23076923  0.25000000       0.012
   0.30769231  0.23076923  0.25000000       0.024
   0.38461538  0.23076923  0.25000000       0.024
   0.46153846  0.23076923  0.25000000       0.024
   0.30769231  0.30769231  0.25000000       0.012
   0.38461538  0.30769231  0.25000000       0.024
   0.46153846  0.30769231  0.25000000       0.024
   0.38461538  0.38461538  0.25000000       0.012
   0.46153846  0.38461538  0.25000000       0.024
   0.46153846  0.46153846  0.25000000       0.012
   0.00000000  0.00000000  0.50000000       0.001
   0.07692308  0.00000000  0.50000000       0.006
   0.15384615  0.00000000  0.50000000       0.006
   0.23076923  0.00000000  0.50000000       0.006
   0.30769231  0.00000000  0.50000000       0.006
   0.38461538  0.00000000  0.50000000       0.006
   0.46153846  0.00000000  0.50000000       0.006
   0.07692308  0.07692308  0.50000000       0.006
   0.15384615  0.07692308  0.50000000       0.012
   0.23076923  0.07692308  0.50000000       0.012
   0.30769231  0.07692308  0.50000000       0.012
   0.38461538  0.07692308  0.50000000       0.012
   0.46153846  0.07692308  0.50000000       0.012
   0.15384615  0.15384615  0.50000000       0.006
   0.23076923  0.15384615  0.50000000       0.012
   0.30769231  0.15384615  0.50000000       0.012
   0.38461538  0.15384615  0.50000000       0.012
   0.46153846  0.15384615  0.50000000       0.012
   0.23076923  0.23076923  0.50000000       0.006
   0.30769231  0.23076923  0.50000000       0.012
   0.38461538  0.23076923  0.50000000       0.012
   0.46153846  0.23076923  0.50000000       0.012
   0.30769231  0.30769231  0.50000000       0.006
   0.38461538  0.30769231  0.50000000       0.012
   0.46153846  0.30769231  0.50000000       0.012
   0.38461538  0.38461538  0.50000000       0.006
   0.46153846  0.38461538  0.50000000       0.012
   0.46153846  0.46153846  0.50000000       0.006
 
 position of ions in fractional coordinates (direct lattice) 
   0.00000000  0.50000000  0.16671334
   0.00000000  0.50000000  0.49917705
   0.00000000  0.50000000  0.83356064
   0.50000000  0.50000000  0.00505291
   0.50000000  0.50000000  0.33783295
   0.50000000  0.50000000  0.66398009
   0.50000000  0.00000000  0.16671334
   0.50000000  0.00000000  0.49917705
   0.50000000  0.00000000  0.83356064
   0.00000000  0.00000000  0.99840655
   0.00000000  0.00000000  0.32947373
   0.00000000  0.00000000  0.66635173
 
 position of ions in cartesian coordinates  (Angst):
   0.00000000  1.85007428  1.87522225
   0.00000000  1.85007428  5.61483505
   0.00000000  1.85007428  9.37604309
   1.85007428  1.85007428  0.05683606
   1.85007428  1.85007428  3.80000701
   1.85007428  1.85007428  7.46856995
   1.85007428  0.00000000  1.87522225
   1.85007428  0.00000000  5.61483505
   1.85007428  0.00000000  9.37604309
   0.00000000  0.00000000 11.23026014
   0.00000000  0.00000000  3.70598102
   0.00000000  0.00000000  7.49524662
 


--------------------------------------------------------------------------------------------------------


 k-point     1 :   0.0000 0.0000 0.0000  plane waves:    4145
 k-point     2 :   0.0769 0.0000 0.0000  plane waves:    4131
 k-point     3 :   0.1538 0.0000 0.0000  plane waves:    4130
 k-point     4 :   0.2308 0.0000 0.0000  plane waves:    4124
 k-point     5 :   0.3077 0.0000 0.0000  plane waves:    4132
 k-point     6 :   0.3846 0.0000 0.0000  plane waves:    4136
 k-point     7 :   0.4615 0.0000 0.0000  plane waves:    4154
 k-point     8 :   0.0769 0.0769 0.0000  plane waves:    4117
 k-point     9 :   0.1538 0.0769 0.0000  plane waves:    4125
 k-point    10 :   0.2308 0.0769 0.0000  plane waves:    4130
 k-point    11 :   0.3077 0.0769 0.0000  plane waves:    4134
 k-point    12 :   0.3846 0.0769 0.0000  plane waves:    4142
 k-point    13 :   0.4615 0.0769 0.0000  plane waves:    4145
 k-point    14 :   0.1538 0.1538 0.0000  plane waves:    4124
 k-point    15 :   0.2308 0.1538 0.0000  plane waves:    4146
 k-point    16 :   0.3077 0.1538 0.0000  plane waves:    4144
 k-point    17 :   0.3846 0.1538 0.0000  plane waves:    4147
 k-point    18 :   0.4615 0.1538 0.0000  plane waves:    4152
 k-point    19 :   0.2308 0.2308 0.0000  plane waves:    4160
 k-point    20 :   0.3077 0.2308 0.0000  plane waves:    4164
 k-point    21 :   0.3846 0.2308 0.0000  plane waves:    4153
 k-point    22 :   0.4615 0.2308 0.0000  plane waves:    4152
 k-point    23 :   0.3077 0.3077 0.0000  plane waves:    4164
 k-point    24 :   0.3846 0.3077 0.0000  plane waves:    4156
 k-point    25 :   0.4615 0.3077 0.0000  plane waves:    4169
 k-point    26 :   0.3846 0.3846 0.0000  plane waves:    4156
 k-point    27 :   0.4615 0.3846 0.0000  plane waves:    4168
 k-point    28 :   0.4615 0.4615 0.0000  plane waves:    4148
 k-point    29 :   0.0000 0.0000 0.2500  plane waves:    4138
 k-point    30 :   0.0769 0.0000 0.2500  plane waves:    4131
 k-point    31 :   0.1538 0.0000 0.2500  plane waves:    4127
 k-point    32 :   0.2308 0.0000 0.2500  plane waves:    4131
 k-point    33 :   0.3077 0.0000 0.2500  plane waves:    4148
 k-point    34 :   0.3846 0.0000 0.2500  plane waves:    4138
 k-point    35 :   0.4615 0.0000 0.2500  plane waves:    4152
 k-point    36 :   0.0769 0.0769 0.2500  plane waves:    4131
 k-point    37 :   0.1538 0.0769 0.2500  plane waves:    4135
 k-point    38 :   0.2308 0.0769 0.2500  plane waves:    4132
 k-point    39 :   0.3077 0.0769 0.2500  plane waves:    4138
 k-point    40 :   0.3846 0.0769 0.2500  plane waves:    4138
 k-point    41 :   0.4615 0.0769 0.2500  plane waves:    4146
 k-point    42 :   0.1538 0.1538 0.2500  plane waves:    4135
 k-point    43 :   0.2308 0.1538 0.2500  plane waves:    4140
 k-point    44 :   0.3077 0.1538 0.2500  plane waves:    4144
 k-point    45 :   0.3846 0.1538 0.2500  plane waves:    4148
 k-point    46 :   0.4615 0.1538 0.2500  plane waves:    4154
 k-point    47 :   0.2308 0.2308 0.2500  plane waves:    4145
 k-point    48 :   0.3077 0.2308 0.2500  plane waves:    4154
 k-point    49 :   0.3846 0.2308 0.2500  plane waves:    4161
 k-point    50 :   0.4615 0.2308 0.2500  plane waves:    4160
 k-point    51 :   0.3077 0.3077 0.2500  plane waves:    4162
 k-point    52 :   0.3846 0.3077 0.2500  plane waves:    4155
 k-point    53 :   0.4615 0.3077 0.2500  plane waves:    4153
 k-point    54 :   0.3846 0.3846 0.2500  plane waves:    4164
 k-point    55 :   0.4615 0.3846 0.2500  plane waves:    4164
 k-point    56 :   0.4615 0.4615 0.2500  plane waves:    4172
 k-point    57 :   0.0000 0.0000 0.5000  plane waves:    4154
 k-point    58 :   0.0769 0.0000 0.5000  plane waves:    4154
 k-point    59 :   0.1538 0.0000 0.5000  plane waves:    4152
 k-point    60 :   0.2308 0.0000 0.5000  plane waves:    4140
 k-point    61 :   0.3077 0.0000 0.5000  plane waves:    4138
 k-point    62 :   0.3846 0.0000 0.5000  plane waves:    4132
 k-point    63 :   0.4615 0.0000 0.5000  plane waves:    4144
 k-point    64 :   0.0769 0.0769 0.5000  plane waves:    4152
 k-point    65 :   0.1538 0.0769 0.5000  plane waves:    4138
 k-point    66 :   0.2308 0.0769 0.5000  plane waves:    4136
 k-point    67 :   0.3077 0.0769 0.5000  plane waves:    4138
 k-point    68 :   0.3846 0.0769 0.5000  plane waves:    4144
 k-point    69 :   0.4615 0.0769 0.5000  plane waves:    4158
 k-point    70 :   0.1538 0.1538 0.5000  plane waves:    4126
 k-point    71 :   0.2308 0.1538 0.5000  plane waves:    4134
 k-point    72 :   0.3077 0.1538 0.5000  plane waves:    4140
 k-point    73 :   0.3846 0.1538 0.5000  plane waves:    4156
 k-point    74 :   0.4615 0.1538 0.5000  plane waves:    4160
 k-point    75 :   0.2308 0.2308 0.5000  plane waves:    4132
 k-point    76 :   0.3077 0.2308 0.5000  plane waves:    4142
 k-point    77 :   0.3846 0.2308 0.5000  plane waves:    4156
 k-point    78 :   0.4615 0.2308 0.5000  plane waves:    4162
 k-point    79 :   0.3077 0.3077 0.5000  plane waves:    4164
 k-point    80 :   0.3846 0.3077 0.5000  plane waves:    4164
 k-point    81 :   0.4615 0.3077 0.5000  plane waves:    4162
 k-point    82 :   0.3846 0.3846 0.5000  plane waves:    4166
 k-point    83 :   0.4615 0.3846 0.5000  plane waves:    4152
 k-point    84 :   0.4615 0.4615 0.5000  plane waves:    4154

 maximum and minimum number of plane-waves per node :      4172     4117

 maximum number of plane-waves:      4172
 maximum index in each direction: 
   IXMAX=    6   IYMAX=    6   IZMAX=   20
   IXMIN=   -7   IYMIN=   -7   IZMIN=  -21


 serial   3D FFT for wavefunctions
 parallel 3D FFT for charge:
    minimum data exchange during FFTs selected (reduces bandwidth)


 total amount of memory used by VASP MPI-rank0   282731. kBytes
=======================================================================

   base      :      30000. kBytes
   nonl-proj :     102217. kBytes
   fftplans  :        888. kBytes
   grid      :       6813. kBytes
   one-center:        373. kBytes
   wavefun   :     142440. kBytes
 
     INWAV:  cpu time      0.0000: real time      0.0004
 Broyden mixing: mesh for mixing (old mesh)
   NGX = 13   NGY = 13   NGZ = 41
  (NGX  = 56   NGY  = 56   NGZ  =168)
  gives a total of   6929 points

 initial charge density was supplied:
 charge density of overlapping atoms calculated
 number of electron     156.0000000 magnetization       8.3930000
 charge density for first step will be calculated from the start-wavefunctions


--------------------------------------------------------------------------------------------------------


 Maximum index for augmentation-charges         1034 (set IRDMAX)


--------------------------------------------------------------------------------------------------------


 First call to EWALD:  gamma=   0.331
 Maximum number of real-space cells 4x 4x 2
 Maximum number of reciprocal cells 2x 2x 5

    FEWALD:  cpu time      0.0018: real time      0.0018


--------------------------------------- Ionic step        1  -------------------------------------------




--------------------------------------- Iteration      1(   1)  ---------------------------------------


    POTLOK:  cpu time      0.0302: real time      0.0307
    SETDIJ:  cpu time      0.0153: real time      0.0155
    TRIAL :  cpu time      5.9114: real time      5.9574
    CORREC:  cpu time      0.0038: real time      0.0038
    --------------------------------------------
      LOOP:  cpu time      6.0840: real time      6.1336

 eigenvalue-minimisations  : 43072
 total energy-change (2. order) : 0.1769143E+04  (-0.9167808E+04)
 number of electron     156.0000000 magnetization       8.3930000
 augmentation part      156.0000000 magnetization       8.3930000

 Free energy of the ion-electron system (eV)
  ---------------------------------------------------
  alpha Z        PSCENC =      1105.13071145
  Ewald energy   TEWEN  =    -18166.12589095
  -Hartree energ DENC   =     -5956.17916313
  -exchange      EXHF   =         0.00000000
  -V(xc)+E(xc)   XCENC  =       657.14071788
  PAW double counting   =     20094.52279679   -20818.50076106
  entropy T*S    EENTRO =         0.00434537
  eigenvalues    EBANDS =       549.04731011
  atomic energy  EATOM  =     24304.10294433
  ---------------------------------------------------
  free energy    TOTEN  =      1769.14301079 eV

  energy without entropy =     1769.13866542  energy(sigma->0) =     1769.14156233


--------------------------------------------------------------------------------------------------------




--------------------------------------- Iteration      1(   2)  ---------------------------------------


    TRIAL :  cpu time      5.8065: real time      5.8478
    CORREC:  cpu time      0.0025: real time      0.0025
    --------------------------------------------
      LOOP:  cpu time      5.8223: real time      5.8723

 eigenvalue-minimisations  : 43008
 total energy-change (2. order) :-0.1763458E+04  (-0.1674370E+04)
 number of electron     156.0000000 magnetization       8.3930000
 augmentation part      156.0000000 magnetization       8.3930000

 Free energy of the ion-electron system (eV)
  ---------------------------------------------------
  alpha Z        PSCENC =      1105.13071145
  Ewald energy   TEWEN  =    -18166.12589095
  -Hartree energ DENC   =     -5956.17916313
  -exchange      EXHF   =         0.00000000
  -V(xc)+E(xc)   XCENC  =       657.14071788
  PAW double counting   =     20094.52279679   -20818.50076106
  entropy T*S    EENTRO =        -0.00133516
  eigenvalues    EBANDS =     -1214.40538760
  atomic energy  EATOM  =     24304.10294433
  ---------------------------------------------------
  free energy    TOTEN  =         5.68463255 eV

  energy without entropy =        5.68596771  energy(sigma->0) =        5.68507760


--------------------------------------------------------------------------------------------------------




--------------------------------------- Iteration      1(   3)  ---------------------------------------


    TRIAL :  cpu time      7.0137: real time      7.0607
    CORREC:  cpu time      0.0025: real time      0.0026
    --------------------------------------------
      LOOP:  cpu time      7.0298: real time      7.0855

 eigenvalue-minimisations  : 50624
 total energy-change (2. order) :-0.1092051E+03  (-0.1078312E+03)
 number of electron     156.0000000 magnetization       8.3930000
 augmentation part      156.0000000 magnetization       8.3930000

 Free energy of the ion-electron system (eV)
  ---------------------------------------------------
  alpha Z        PSCENC =      1105.13071145
  Ewald energy   TEWEN  =    -18166.12589095
  -Hartree energ DENC   =     -5956.17916313
  -exchange      EXHF   =         0.00000000
  -V(xc)+E(xc)   XCENC  =       657.14071788
  PAW double counting   =     20094.52279679   -20818.50076106
  entropy T*S    EENTRO =         0.00300354
  eigenvalues    EBANDS =     -1323.61481020
  atomic energy  EATOM  =     24304.10294433
  ---------------------------------------------------
  free energy    TOTEN  =      -103.52045135 eV

  energy without entropy =     -103.52345489  energy(sigma->0) =     -103.52145253


--------------------------------------------------------------------------------------------------------




--------------------------------------- Iteration      1(   4)  ---------------------------------------


    TRIAL :  cpu time      6.2657: real time      6.3105
    CORREC:  cpu time      0.0025: real time      0.0025
    --------------------------------------------
      LOOP:  cpu time      6.2899: real time      6.3350

 eigenvalue-minimisations  : 45984
 total energy-change (2. order) :-0.1582580E+01  (-0.1582274E+01)
 number of electron     156.0000000 magnetization       8.3930000
 augmentation part      156.0000000 magnetization       8.3930000

 Free energy of the ion-electron system (eV)
  ---------------------------------------------------
  alpha Z        PSCENC =      1105.13071145
  Ewald energy   TEWEN  =    -18166.12589095
  -Hartree energ DENC   =     -5956.17916313
  -exchange      EXHF   =         0.00000000
  -V(xc)+E(xc)   XCENC  =       657.14071788
  PAW double counting   =     20094.52279679   -20818.50076106
  entropy T*S    EENTRO =         0.00307864
  eigenvalues    EBANDS =     -1325.19746506
  atomic energy  EATOM  =     24304.10294433
  ---------------------------------------------------
  free energy    TOTEN  =      -105.10303111 eV

  energy without entropy =     -105.10610975  energy(sigma->0) =     -105.10405732


--------------------------------------------------------------------------------------------------------




--------------------------------------- Iteration      1(   5)  ---------------------------------------


    TRIAL :  cpu time      7.3995: real time      7.4498
    CORREC:  cpu time      0.0026: real time      0.0026
    CHARGE:  cpu time      0.1808: real time      0.1823
    --------------------------------------------
      LOOP:  cpu time      7.5979: real time      7.6571

 eigenvalue-minimisations  : 52736
 total energy-change (2. order) :-0.3040319E-01  (-0.3040238E-01)
 number of electron     156.0000239 magnetization       7.1485726
 augmentation part       79.2465496 magnetization       5.1341320

 Free energy of the ion-electron system (eV)
  ---------------------------------------------------
  alpha Z        PSCENC =      1105.13071145
  Ewald energy   TEWEN  =    -18166.12589095
  -Hartree energ DENC   =     -5956.17916313
  -exchange      EXHF   =         0.00000000
  -V(xc)+E(xc)   XCENC  =       657.14071788
  PAW double counting   =     20094.52279679   -20818.50076106
  entropy T*S    EENTRO =         0.00307858
  eigenvalues    EBANDS =     -1325.22786819
  atomic energy  EATOM  =     24304.10294433
  ---------------------------------------------------
  free energy    TOTEN  =      -105.13343429 eV

  energy without entropy =     -105.13651288  energy(sigma->0) =     -105.13446049


--------------------------------------------------------------------------------------------------------




--------------------------------------- Iteration      1(   6)  ---------------------------------------


    POTLOK:  cpu time      0.0228: real time      0.0230
    SETDIJ:  cpu time      0.0076: real time      0.0076
    TRIAL :  cpu time      2.8754: real time      2.9043
    CORREC:  cpu time      1.1005: real time      1.1095
    CHARGE:  cpu time      0.1717: real time      0.1727
    --------------------------------------------
      LOOP:  cpu time      4.2006: real time      4.2400

 eigenvalue-minimisations  :     0
 total energy-change (2. order) : 0.5553607E+02  (-0.1183355E+02)
 number of electron     156.0000241 magnetization       7.3224267
 augmentation part       79.9627815 magnetization       5.1908344

 Free energy of the ion-electron system (eV)
  ---------------------------------------------------
  alpha Z        PSCENC =      1105.13071145
  Ewald energy   TEWEN  =    -18166.12589095
  -Hartree energ DENC   =     -4849.10478200
  -exchange      EXHF   =         0.00000000
  -V(xc)+E(xc)   XCENC  =       610.77353138
  PAW double counting   =     21156.62215697   -21822.00366474
  entropy T*S    EENTRO =        -0.00040527
  eigenvalues    EBANDS =     -2388.99545259
  atomic energy  EATOM  =     24304.10294433
  ---------------------------------------------------
  free energy    TOTEN  =       -49.59736756 eV

  energy without entropy =      -49.59696229  energy(sigma->0) =      -49.59723247


--------------------------------------------------------------------------------------------------------




--------------------------------------- Iteration      1(   7)  ---------------------------------------


    POTLOK:  cpu time      0.0217: real time      0.0219
    SETDIJ:  cpu time      0.0079: real time      0.0079
    TRIAL :  cpu time      2.7715: real time      2.7982
    CORREC:  cpu time      1.1943: real time      1.2059
    CHARGE:  cpu time      0.1669: real time      0.1678
    --------------------------------------------
      LOOP:  cpu time      4.1786: real time      4.2252

 eigenvalue-minimisations  :     0
 total energy-change (2. order) :-0.1530393E+02  (-0.1591879E+02)
 number of electron     156.0000249 magnetization       7.5692717
 augmentation part       82.5967884 magnetization       5.4872263

 Free energy of the ion-electron system (eV)
  ---------------------------------------------------
  alpha Z        PSCENC =      1105.13071145
  Ewald energy   TEWEN  =    -18166.12589095
  -Hartree energ DENC   =     -4939.76587717
  -exchange      EXHF   =         0.00000000
  -V(xc)+E(xc)   XCENC  =       614.77539259
  PAW double counting   =     21232.89835523   -21916.41965121
  entropy T*S    EENTRO =         0.00359877
  eigenvalues    EBANDS =     -2299.49687976
  atomic energy  EATOM  =     24304.10294433
  ---------------------------------------------------
  free energy    TOTEN  =       -64.90130077 eV

  energy without entropy =      -64.90489955  energy(sigma->0) =      -64.90250036


--------------------------------------------------------------------------------------------------------




--------------------------------------- Iteration      1(   8)  ---------------------------------------


    POTLOK:  cpu time      0.0219: real time      0.0221
    SETDIJ:  cpu time      0.0074: real time      0.0074
    TRIAL :  cpu time      2.8283: real time      2.8564
    CORREC:  cpu time      1.0928: real time      1.1045
    CHARGE:  cpu time      0.1616: real time      0.1625
    --------------------------------------------
      LOOP:  cpu time      4.1277: real time      4.1766

 eigenvalue-minimisations  :     0
 total energy-change (2. order) :-0.1697626E+02  (-0.5221741E+01)
 number of electron     156.0000252 magnetization       7.4749640
 augmentation part       83.7515666 magnetization       5.5484264

 Free energy of the ion-electron system (eV)
  ---------------------------------------------------
  alpha Z        PSCENC =      1105.13071145
  Ewald energy   TEWEN  =    -18166.12589095
  -Hartree energ DENC   =     -5314.72453367
  -exchange      EXHF   =         0.00000000
  -V(xc)+E(xc)   XCENC  =       630.21044687
  PAW double counting   =     21733.21963327   -22485.73443161
  entropy T*S    EENTRO =         0.00842341
  eigenvalues    EBANDS =     -1887.96003570
  atomic energy  EATOM  =     24304.10294433
  ---------------------------------------------------
  free energy    TOTEN  =       -81.87755723 eV

  energy without entropy =      -81.88598064  energy(sigma->0) =      -81.88036503


--------------------------------------------------------------------------------------------------------




--------------------------------------- Iteration      1(   9)  ---------------------------------------


    POTLOK:  cpu time      0.0216: real time      0.0218
    SETDIJ:  cpu time      0.0080: real time      0.0081
    TRIAL :  cpu time      2.7224: real time      2.7495
    CORREC:  cpu time      1.0912: real time      1.1028
    CHARGE:  cpu time      0.1617: real time      0.1626
    --------------------------------------------
      LOOP:  cpu time      4.0190: real time      4.0677

 eigenvalue-minimisations  :     0
 total energy-change (2. order) :-0.5106127E+01  (-0.1712136E+01)
 number of electron     156.0000253 magnetization       7.5668751
 augmentation part       84.2014743 magnetization       5.6422675

 Free energy of the ion-electron system (eV)
  ---------------------------------------------------
  alpha Z        PSCENC =      1105.13071145
  Ewald energy   TEWEN  =    -18166.12589095
  -Hartree energ DENC   =     -5480.13581041
  -exchange      EXHF   =         0.00000000
  -V(xc)+E(xc)   XCENC  =       637.15442676
  PAW double counting   =     22033.44425880   -22815.81634973
  entropy T*S    EENTRO =         0.01589862
  eigenvalues    EBANDS =     -1704.74639789
  atomic energy  EATOM  =     24304.10294433
  ---------------------------------------------------
  free energy    TOTEN  =       -86.98368424 eV

  energy without entropy =      -86.99958286  energy(sigma->0) =      -86.98898378


--------------------------------------------------------------------------------------------------------




--------------------------------------- Iteration      1(  10)  ---------------------------------------


    POTLOK:  cpu time      0.0216: real time      0.0218
    SETDIJ:  cpu time      0.0076: real time      0.0077
    TRIAL :  cpu time      2.6941: real time      2.7208
    CORREC:  cpu time      1.0996: real time      1.1111
    CHARGE:  cpu time      0.2836: real time      0.2849
    --------------------------------------------
      LOOP:  cpu time      4.1225: real time      4.1690

 eigenvalue-minimisations  :     0
 total energy-change (2. order) :-0.1517206E+01  (-0.9695982E+00)
 number of electron     156.0000253 magnetization       7.7796966
 augmentation part       84.4494432 magnetization       5.7682908

 Free energy of the ion-electron system (eV)
  ---------------------------------------------------
  alpha Z        PSCENC =      1105.13071145
  Ewald energy   TEWEN  =    -18166.12589095
  -Hartree energ DENC   =     -5539.73714945
  -exchange      EXHF   =         0.00000000
  -V(xc)+E(xc)   XCENC  =       639.78676635
  PAW double counting   =     22148.96335660   -22938.00484414
  entropy T*S    EENTRO =         0.02118517
  eigenvalues    EBANDS =     -1642.63268311
  atomic energy  EATOM  =     24304.10294433
  ---------------------------------------------------
  free energy    TOTEN  =       -88.50089031 eV

  energy without entropy =      -88.52207548  energy(sigma->0) =      -88.50795203


--------------------------------------------------------------------------------------------------------




--------------------------------------- Iteration      1(  11)  ---------------------------------------


    POTLOK:  cpu time      0.0227: real time      0.0230
    SETDIJ:  cpu time      0.0079: real time      0.0079
    TRIAL :  cpu time      2.7415: real time      2.7690
    CORREC:  cpu time      1.0971: real time      1.1089
    CHARGE:  cpu time      0.1608: real time      0.1617
    --------------------------------------------
      LOOP:  cpu time      4.0465: real time      4.0948

 eigenvalue-minimisations  :     0
 total energy-change (2. order) :-0.1081957E+01  (-0.9270659E+00)
 number of electron     156.0000253 magnetization       7.9605426
 augmentation part       84.5553147 magnetization       5.8822463

 Free energy of the ion-electron system (eV)
  ---------------------------------------------------
  alpha Z        PSCENC =      1105.13071145
  Ewald energy   TEWEN  =    -18166.12589095
  -Hartree energ DENC   =     -5568.71936701
  -exchange      EXHF   =         0.00000000
  -V(xc)+E(xc)   XCENC  =       641.15742637
  PAW double counting   =     22207.87489219   -22997.38945697
  entropy T*S    EENTRO =         0.02472266
  eigenvalues    EBANDS =     -1615.63529225
  atomic energy  EATOM  =     24304.10294433
  ---------------------------------------------------
  free energy    TOTEN  =       -89.58284768 eV

  energy without entropy =      -89.60757034  energy(sigma->0) =      -89.59108856


--------------------------------------------------------------------------------------------------------




--------------------------------------- Iteration      1(  12)  ---------------------------------------


    POTLOK:  cpu time      0.0215: real time      0.0217
    SETDIJ:  cpu time      0.0078: real time      0.0078
    TRIAL :  cpu time      2.8095: real time      2.8368
    CORREC:  cpu time      1.0957: real time      1.1072
    CHARGE:  cpu time      0.1540: real time      0.1549
    --------------------------------------------
      LOOP:  cpu time      4.1035: real time      4.1515

 eigenvalue-minimisations  :     0
 total energy-change (2. order) :-0.1001491E+01  (-0.1087497E+01)
 number of electron     156.0000252 magnetization       7.9737700
 augmentation part       84.6327192 magnetization       5.9305410

 Free energy of the ion-electron system (eV)
  ---------------------------------------------------
  alpha Z        PSCENC =      1105.13071145
  Ewald energy   TEWEN  =    -18166.12589095
  -Hartree energ DENC   =     -5573.63290311
  -exchange      EXHF   =         0.00000000
  -V(xc)+E(xc)   XCENC  =       641.61516226
  PAW double counting   =     22216.89851043   -23000.40076163
  entropy T*S    EENTRO =         0.02984292
  eigenvalues    EBANDS =     -1618.19683427
  atomic energy  EATOM  =     24304.10294433
  ---------------------------------------------------
  free energy    TOTEN  =       -90.58433883 eV

  energy without entropy =      -90.61418175  energy(sigma->0) =      -90.59428647


--------------------------------------------------------------------------------------------------------




--------------------------------------- Iteration      1(  13)  ---------------------------------------


    POTLOK:  cpu time      0.0214: real time      0.0215
    SETDIJ:  cpu time      0.0077: real time      0.0077
    TRIAL :  cpu time      2.8315: real time      2.8609
    CORREC:  cpu time      1.0955: real time      1.1069
    CHARGE:  cpu time      0.1558: real time      0.1567
    --------------------------------------------
      LOOP:  cpu time      4.1265: real time      4.1763

 eigenvalue-minimisations  :     0
 total energy-change (2. order) :-0.1346794E+01  (-0.3175393E+00)
 number of electron     156.0000252 magnetization       7.8904124
 augmentation part       84.6430779 magnetization       5.9033052

 Free energy of the ion-electron system (eV)
  ---------------------------------------------------
  alpha Z        PSCENC =      1105.13071145
  Ewald energy   TEWEN  =    -18166.12589095
  -Hartree energ DENC   =     -5569.94874375
  -exchange      EXHF   =         0.00000000
  -V(xc)+E(xc)   XCENC  =       641.88215287
  PAW double counting   =     22217.15211288   -22990.09313701
  entropy T*S    EENTRO =         0.02948453
  eigenvalues    EBANDS =     -1634.06112605
  atomic energy  EATOM  =     24304.10294433
  ---------------------------------------------------
  free energy    TOTEN  =       -91.93113332 eV

  energy without entropy =      -91.96061785  energy(sigma->0) =      -91.94096150


--------------------------------------------------------------------------------------------------------




--------------------------------------- Iteration      1(  14)  ---------------------------------------


    POTLOK:  cpu time      0.0217: real time      0.0219
    SETDIJ:  cpu time      0.0078: real time      0.0078
    TRIAL :  cpu time      2.7350: real time      2.7620
    CORREC:  cpu time      1.1010: real time      1.1131
    CHARGE:  cpu time      0.1540: real time      0.1549
    --------------------------------------------
      LOOP:  cpu time      4.0425: real time      4.0831

 eigenvalue-minimisations  :     0
 total energy-change (2. order) :-0.3309823E+00  (-0.3193667E+00)
 number of electron     156.0000252 magnetization       7.9575733
 augmentation part       84.6564502 magnetization       5.9648017

 Free energy of the ion-electron system (eV)
  ---------------------------------------------------
  alpha Z        PSCENC =      1105.13071145
  Ewald energy   TEWEN  =    -18166.12589095
  -Hartree energ DENC   =     -5568.50855143
  -exchange      EXHF   =         0.00000000
  -V(xc)+E(xc)   XCENC  =       641.93373598
  PAW double counting   =     22214.92784910   -22984.60751708
  entropy T*S    EENTRO =         0.02181465
  eigenvalues    EBANDS =     -1639.14488158
  atomic energy  EATOM  =     24304.10294433
  ---------------------------------------------------
  free energy    TOTEN  =       -92.26211566 eV

  energy without entropy =      -92.28393031  energy(sigma->0) =      -92.26938721


--------------------------------------------------------------------------------------------------------




--------------------------------------- Iteration      1(  15)  ---------------------------------------


    POTLOK:  cpu time      0.0215: real time      0.0217
    SETDIJ:  cpu time      0.0083: real time      0.0083
    TRIAL :  cpu time      2.7869: real time      2.8144
    CORREC:  cpu time      1.2127: real time      1.2250
    CHARGE:  cpu time      0.1535: real time      0.1544
    --------------------------------------------
      LOOP:  cpu time      4.1980: real time      4.2467

 eigenvalue-minimisations  :     0
 total energy-change (2. order) :-0.3172961E+00  (-0.3374726E+00)
 number of electron     156.0000251 magnetization       8.1558033
 augmentation part       84.6887632 magnetization       6.0942096

 Free energy of the ion-electron system (eV)
  ---------------------------------------------------
  alpha Z        PSCENC =      1105.13071145
  Ewald energy   TEWEN  =    -18166.12589095
  -Hartree energ DENC   =     -5575.35234512
  -exchange      EXHF   =         0.00000000
  -V(xc)+E(xc)   XCENC  =       642.23375848
  PAW double counting   =     22204.54366545   -22968.96508818
  entropy T*S    EENTRO =         0.01971213
  eigenvalues    EBANDS =     -1638.16898184
  atomic energy  EATOM  =     24304.10294433
  ---------------------------------------------------
  free energy    TOTEN  =       -92.57941174 eV

  energy without entropy =      -92.59912387  energy(sigma->0) =      -92.58598245


--------------------------------------------------------------------------------------------------------




--------------------------------------- Iteration      1(  16)  ---------------------------------------


    POTLOK:  cpu time      0.0219: real time      0.0221
    SETDIJ:  cpu time      0.0079: real time      0.0079
    TRIAL :  cpu time      2.7141: real time      2.7418
    CORREC:  cpu time      1.0982: real time      1.1100
    CHARGE:  cpu time      0.1560: real time      0.1569
    --------------------------------------------
      LOOP:  cpu time      4.0137: real time      4.0617

 eigenvalue-minimisations  :     0
 total energy-change (2. order) :-0.3130727E+00  (-0.2303646E+00)
 number of electron     156.0000251 magnetization       8.1792368
 augmentation part       84.7502149 magnetization       6.1332349

 Free energy of the ion-electron system (eV)
  ---------------------------------------------------
  alpha Z        PSCENC =      1105.13071145
  Ewald energy   TEWEN  =    -18166.12589095
  -Hartree energ DENC   =     -5587.65688329
  -exchange      EXHF   =         0.00000000
  -V(xc)+E(xc)   XCENC  =       642.72007162
  PAW double counting   =     22200.47967169   -22959.37021900
  entropy T*S    EENTRO =         0.01957681
  eigenvalues    EBANDS =     -1632.19260241
  atomic energy  EATOM  =     24304.10294433
  ---------------------------------------------------
  free energy    TOTEN  =       -92.89248443 eV

  energy without entropy =      -92.91206124  energy(sigma->0) =      -92.89901004


--------------------------------------------------------------------------------------------------------




--------------------------------------- Iteration      1(  17)  ---------------------------------------


    POTLOK:  cpu time      0.0217: real time      0.0219
    SETDIJ:  cpu time      0.0074: real time      0.0074
    TRIAL :  cpu time      2.7363: real time      2.7639
    CORREC:  cpu time      1.0890: real time      1.1007
    CHARGE:  cpu time      0.1544: real time      0.1553
    --------------------------------------------
      LOOP:  cpu time      4.0241: real time      4.0726

 eigenvalue-minimisations  :     0
 total energy-change (2. order) :-0.2255952E+00  (-0.7200001E-01)
 number of electron     156.0000251 magnetization       8.1207150
[...]
     78      10.2323     -0.03509
     79      10.3225     -0.02180
     80      10.3882     -0.00920
     81      10.4453     -0.00341
     82      10.5793     -0.00015
     83      10.8605     -0.00000
     84      10.9539     -0.00000
     85      11.0378     -0.00000
     86      11.0696     -0.00000
     87      11.2034     -0.00000
     88      11.5544     -0.00000
     89      11.6648     -0.00000
     90      11.7432     -0.00000
     91      11.8317     -0.00000
     92      11.8808     -0.00000
     93      12.1978     -0.00000
     94      12.2515     -0.00000
     95      12.4483     -0.00000
     96      12.6930     -0.00000
     97      12.8651     -0.00000
     98      12.8981     -0.00000
     99      13.3673     -0.00000
    100      15.2685      0.00000
    101      17.2127      0.00000
    102      17.2476      0.00000
    103      17.3163      0.00000
    104      18.2205      0.00000
    105      18.3723      0.00000
    106      18.8825      0.00000
    107      19.0894      0.00000
    108      19.4562      0.00000
    109      19.6185      0.00000
    110      20.0143      0.00000
    111      20.0860      0.00000
    112      24.2915      0.00000
    113      24.4497      0.00000
    114      24.8702      0.00000
    115      24.9246      0.00000
    116      25.1791      0.00000
    117      25.3440      0.00000
    118      26.0930      0.00000
    119      26.2405      0.00000
    120      27.5371      0.00000
    121      27.5742      0.00000
    122      27.6112      0.00000
    123      28.0668      0.00000
    124      28.7962      0.00000
    125      29.0913      0.00000
    126      29.2843      0.00000
    127      29.5138      0.00000
    128      30.0783      0.00000


--------------------------------------------------------------------------------------------------------


 soft charge-density along one line, spin component           1
         0         1         2         3         4         5         6         7         8         9
 total charge-density along one line
 
 soft charge-density along one line, spin component           2
         0         1         2         3         4         5         6         7         8         9
 total charge-density along one line
 
 pseudopotential strength for first ion, spin component:           1
-42.852  -0.000  -0.000   6.722   0.000   0.000   0.000   0.001
 -0.000 -42.888  -0.000   0.000   6.736   0.000  -0.000  -0.000
 -0.000  -0.000 -42.817   0.000   0.000   6.707  -0.000  -0.000
  6.722   0.000   0.000   5.882   0.000   0.000  -0.000  -0.001
  0.000   6.736   0.000   0.000   5.878   0.000   0.000   0.000
  0.000   0.000   6.707   0.000   0.000   5.885   0.000   0.000
  0.000  -0.000  -0.000  -0.000   0.000   0.000  -0.392  -0.000
  0.001  -0.000  -0.000  -0.001   0.000   0.000  -0.000  -0.391
  0.000   0.002  -0.000  -0.000   0.000   0.000   0.000  -0.000
 -0.000   0.000  -0.006   0.000  -0.000   0.005  -0.000  -0.000
  0.000  -0.004   0.000  -0.000   0.003  -0.000   0.000   0.000
  0.000  -0.000  -0.000  -0.000   0.000   0.000  -0.933  -0.000
  0.001  -0.000  -0.000  -0.001   0.000   0.000  -0.000  -0.932
  0.000   0.002  -0.000  -0.000   0.001   0.000   0.000  -0.000
 -0.000   0.000  -0.006   0.000  -0.000   0.005  -0.000  -0.000
  0.000  -0.004   0.000  -0.000   0.003  -0.000   0.000   0.000
  0.000   0.002  -0.000   0.000   0.001  -0.000   0.000   0.000
  0.000   0.006  -0.000   0.000   0.004  -0.000   0.000   0.000
 pseudopotential strength for first ion, spin component:           2
-44.960  -0.000  -0.000   7.610   0.000   0.000   0.000   0.005
 -0.000 -45.031  -0.000   0.000   7.637   0.000  -0.000  -0.000
 -0.000  -0.000 -44.848   0.000   0.000   7.564  -0.000  -0.000
  7.610   0.000   0.000   5.632   0.000   0.000  -0.000  -0.003
  0.000   7.637   0.000   0.000   5.626   0.000   0.000   0.000
  0.000   0.000   7.564   0.000   0.000   5.641   0.000   0.000
  0.000  -0.000  -0.000  -0.000   0.000   0.000  -2.000   0.000
  0.005  -0.000  -0.000  -0.003   0.000   0.000   0.000  -2.176
  0.000   0.014  -0.000  -0.000  -0.007   0.000   0.000  -0.000
 -0.000   0.000   0.024   0.000  -0.000  -0.011  -0.000  -0.000
  0.000   0.010   0.000  -0.000  -0.004  -0.000   0.000   0.000
  0.000  -0.000  -0.000  -0.000   0.000   0.000  -2.515   0.000
  0.005  -0.000  -0.000  -0.003   0.000   0.000   0.000  -2.688
  0.000   0.014  -0.000  -0.000  -0.007   0.000   0.000  -0.000
 -0.000   0.000   0.024   0.000  -0.000  -0.011  -0.000  -0.000
  0.000   0.009   0.000  -0.000  -0.004  -0.000   0.000   0.000
  0.000  -0.005  -0.000   0.000   0.004  -0.000   0.000   0.000
  0.000  -0.013  -0.000   0.000   0.009  -0.000   0.000   0.000
 total augmentation occupancy for first ion, spin component:           1
  1.992   0.000   0.000  -0.027   0.000   0.000   0.000  -0.006   0.000   0.000   0.000   0.000   0.007   0.000   0.000   0.000
  0.000   1.992   0.000   0.000  -0.028   0.000   0.000   0.000  -0.004   0.000   0.003   0.000   0.000   0.004   0.000  -0.003
  0.000   0.000   1.992   0.000   0.000  -0.027  -0.000   0.000   0.000  -0.001   0.000   0.000   0.000   0.000   0.001   0.000
 -0.027   0.000   0.000   0.187   0.000   0.000   0.000  -0.018   0.000   0.000   0.000   0.000   0.024   0.000  -0.000   0.000
  0.000  -0.028   0.000   0.000   0.187   0.000   0.000  -0.000  -0.011   0.000   0.017   0.000   0.000   0.004   0.000  -0.028
  0.000   0.000  -0.027   0.000   0.000   0.166   0.000   0.000  -0.000   0.012  -0.000   0.000   0.000   0.000  -0.034   0.000
  0.000   0.000  -0.000   0.000   0.000   0.000   2.725  -0.000  -0.000   0.000   0.000  -1.476  -0.000   0.000   0.000   0.000
 -0.006   0.000   0.000  -0.018  -0.000   0.000  -0.000   2.925  -0.000   0.000  -0.000   0.000  -2.000   0.000   0.000   0.000
  0.000  -0.004   0.000   0.000  -0.011  -0.000  -0.000  -0.000   3.293  -0.000   0.224   0.000  -0.000  -1.890   0.000  -0.123
  0.000   0.000  -0.001   0.000   0.000   0.012   0.000   0.000  -0.000   2.607   0.000   0.000   0.000   0.000  -1.408   0.000
  0.000   0.003   0.000   0.000   0.017  -0.000   0.000  -0.000   0.224   0.000   2.999   0.000   0.000  -0.124   0.000  -1.721
  0.000   0.000   0.000   0.000   0.000   0.000  -1.476   0.000   0.000   0.000   0.000   1.664   0.000  -0.000   0.000   0.000
  0.007   0.000   0.000   0.024   0.000   0.000  -0.000  -2.000  -0.000   0.000   0.000   0.000   2.319   0.000   0.000   0.000
  0.000   0.004   0.000   0.000   0.004   0.000   0.000   0.000  -1.890   0.000  -0.124  -0.000   0.000   1.799   0.000   0.044
  0.000   0.000   0.001  -0.000   0.000  -0.034   0.000   0.000   0.000  -1.408   0.000   0.000   0.000   0.000   1.589   0.000
  0.000  -0.003   0.000   0.000  -0.028   0.000   0.000   0.000  -0.123   0.000  -1.721   0.000   0.000   0.044   0.000   1.723
  0.000  -0.001  -0.000   0.000   0.001  -0.000   0.000   0.000  -0.112   0.000   0.190   0.000   0.000   0.074   0.000  -0.144
  0.000   0.001   0.000   0.000   0.000   0.000   0.000   0.000   0.012   0.000  -0.012   0.000   0.000  -0.007   0.000   0.008
 total augmentation occupancy for first ion, spin component:           2
  0.002   0.000   0.000   0.008   0.000   0.000   0.000   0.002  -0.000   0.000   0.000   0.000  -0.002   0.000   0.000   0.000
  0.000   0.002   0.000   0.000   0.008   0.000   0.000   0.000   0.005   0.000   0.004   0.000   0.000  -0.005   0.000  -0.005
  0.000   0.000   0.002   0.000  -0.000   0.008   0.000  -0.000   0.000   0.011   0.000   0.000   0.000   0.000  -0.012   0.000
  0.008   0.000   0.000  -0.007   0.000   0.000   0.000   0.019   0.000   0.000   0.000   0.000  -0.017   0.000   0.000   0.000
  0.000   0.008  -0.000   0.000  -0.002   0.000   0.000   0.000  -0.007   0.000  -0.038   0.000   0.000  -0.008   0.000   0.015
  0.000   0.000   0.008   0.000   0.000  -0.003   0.000   0.000   0.000  -0.067   0.000   0.000   0.000   0.000   0.016   0.000
  0.000   0.000   0.000   0.000   0.000   0.000  -2.034   0.000  -0.000   0.000  -0.000   0.911  -0.000   0.000   0.000   0.000
  0.002   0.000  -0.000   0.019   0.000   0.000   0.000  -2.016   0.000   0.000   0.000   0.000   0.693   0.000   0.000   0.000
 -0.000   0.005   0.000   0.000  -0.007   0.000  -0.000   0.000  -2.550   0.000  -0.078   0.000  -0.000   1.117   0.000   0.074
  0.000   0.000   0.011   0.000   0.000  -0.067   0.000   0.000   0.000  -1.855  -0.000   0.000   0.000   0.000   0.677   0.000
  0.000   0.004   0.000   0.000  -0.038   0.000  -0.000   0.000  -0.078  -0.000  -2.324  -0.000   0.000   0.074   0.000   0.888
  0.000   0.000   0.000   0.000   0.000   0.000   0.911   0.000   0.000   0.000  -0.000  -0.230   0.000  -0.000   0.000   0.000
 -0.002   0.000   0.000  -0.017   0.000   0.000  -0.000   0.693  -0.000   0.000   0.000   0.000   0.026  -0.000   0.000  -0.000
  0.000  -0.005   0.000   0.000  -0.008   0.000   0.000   0.000   1.117   0.000   0.074  -0.000  -0.000  -0.367   0.000  -0.078
  0.000   0.000  -0.012   0.000   0.000   0.016   0.000   0.000   0.000   0.677   0.000   0.000   0.000   0.000  -0.018   0.000
  0.000  -0.005   0.000   0.000   0.015   0.000   0.000   0.000   0.074   0.000   0.888   0.000  -0.000  -0.078   0.000  -0.141
  0.000  -0.002  -0.000   0.000  -0.017   0.000   0.000   0.000  -0.001   0.000  -0.045   0.000   0.000  -0.014   0.000   0.038
  0.000   0.000   0.000   0.000  -0.000   0.000   0.000   0.000  -0.008   0.000   0.005   0.000   0.000   0.002   0.000  -0.001


------------------------ aborting loop because EDIFF is reached ----------------------------------------





 total charge

# of ion       s       p       d       tot
------------------------------------------
    1        0.354   6.336   6.036  12.725
    2        0.350   6.330   6.047  12.727
    3        0.350   6.329   6.024  12.703
    4        0.357   6.338   6.022  12.716
    5        0.355   6.336   6.024  12.716
    6        0.351   6.334   6.024  12.709
    7        0.354   6.336   6.036  12.725
    8        0.350   6.330   6.047  12.727
    9        0.350   6.329   6.024  12.703
   10        0.775   0.706   8.033   9.514
   11        0.779   0.701   8.038   9.518
   12        0.764   0.717   8.034   9.516
--------------------------------------------------
tot          5.489  59.122  78.388 142.999



 magnetization (x)

# of ion       s       p       d       tot
------------------------------------------
    1       -0.013  -0.006  -2.463  -2.482
    2        0.002  -0.012   2.610   2.600
    3        0.009   0.002   2.555   2.566
    4       -0.017  -0.022  -2.506  -2.545
    5        0.015   0.022   2.511   2.547
    6        0.002  -0.014   2.744   2.732
    7       -0.013  -0.006  -2.463  -2.482
    8        0.002  -0.012   2.610   2.600
    9        0.009   0.002   2.555   2.566
   10        0.008   0.014  -0.067  -0.046
   11       -0.009  -0.017   0.087   0.062
   12       -0.039  -0.097   0.407   0.272
--------------------------------------------------
tot         -0.044  -0.145   8.579   8.390
 
    FORLOC:  cpu time      0.0009: real time      0.0009
    FORNL :  cpu time      0.8014: real time      0.8054
    STRESS:  cpu time      4.3954: real time      4.4318
    FORCOR:  cpu time      0.0204: real time      0.0206
    OFIELD:  cpu time      0.0002: real time      0.0002

  FORCE on cell =-STRESS in cart. coord.  units (eV):
  Direction    XX          YY          ZZ          XY          YZ          ZX
  --------------------------------------------------------------------------------------
  Alpha Z  1105.13071  1105.13071  1105.13071
  Ewald   -6047.30975 -6047.30975 -6071.53687     0.00000    -0.00000     0.00000
  Hartree  1877.33041  1877.33041  1855.40065    -0.00000    -0.00000    -0.00000
  E(xc)    -943.89292  -943.89292  -943.83330    -0.00000    -0.00000     0.00000
  Local    1086.17521  1086.17521  1138.86706    -0.00000    -0.00000    -0.00000
  n-local  -211.96272  -226.11704  -219.31966    14.59499     0.12204     0.20185
  augment  1440.03068  1440.03068  1435.85356     0.00000     0.00000    -0.00000
  Kinetic  1709.26079  1693.22965  1699.11273     3.22461     0.05298     0.00343
  Fock        0.00000     0.00000     0.00000     0.00000     0.00000     0.00000
  -------------------------------------------------------------------------------------
  Total      -0.33032    -0.33032    -0.32512     0.00000     0.00000     0.00000
  in kB      -3.43657    -3.43657    -3.38248     0.00000     0.00000     0.00000
  external pressure =       -3.42 kB  Pullay stress =        0.00 kB


 VOLUME and BASIS-vectors are now :
 -----------------------------------------------------------------------------
  energy-cutoff  :      520.00
  volume of cell :      154.00
      direct lattice vectors                 reciprocal lattice vectors
     3.700099101  0.000000000  0.000000000     0.270263032  0.000000000  0.000000000
     0.000000000  3.700099101  0.000000000     0.000000000  0.270263032  0.000000000
     0.000000000  0.000000000 11.248484355     0.000000000  0.000000000  0.088900866

  length of vectors
     3.700099101  3.700099101 11.248484355     0.270263032  0.270263032  0.088900866


 FORCES acting on ions:
    Electron-Ion                     Ewald-Force                    Non-Local-Force
 -----------------------------------------------------------------------------------------------
   0.206E-11 0.102E-10 0.238E+01   -.778E-14 0.328E-13 -.334E+01   -.686E-19 0.612E-19 0.954E+00
   0.206E-11 -.381E-11 -.255E+02   -.279E-13 0.191E-13 0.258E+02   -.530E-20 -.120E-17 -.377E+00
   0.207E-11 0.115E-10 0.183E+01   -.891E-14 0.530E-14 -.307E+01   -.562E-18 -.294E-17 0.123E+01
   0.103E-11 -.392E-11 0.707E+02   0.371E-13 0.116E-13 -.682E+02   -.376E-18 0.147E-18 -.247E+01
   0.103E-11 -.408E-11 0.426E+02   -.595E-13 0.515E-13 -.405E+02   -.243E-18 0.401E-18 -.212E+01
   0.102E-11 -.490E-11 -.556E+02   0.265E-13 -.493E-14 0.558E+02   0.239E-18 0.233E-18 -.170E+00
   0.103E-11 0.384E-14 0.238E+01   0.325E-13 0.830E-15 -.334E+01   0.326E-18 -.894E-19 0.954E+00
   0.103E-11 0.146E-12 -.255E+02   -.141E-13 -.412E-14 0.258E+02   0.535E-18 0.249E-19 -.377E+00
   0.100E-11 0.145E-12 0.183E+01   0.293E-13 0.109E-13 -.307E+01   -.925E-18 -.108E-18 0.123E+01
   0.194E-12 -.115E-13 0.191E+02   -.729E-13 -.236E-13 -.194E+02   0.117E-18 -.192E-19 0.315E+00
   0.196E-12 -.177E-12 -.787E+01   0.664E-13 -.462E-13 0.781E+01   -.102E-17 -.941E-18 0.116E+00
   0.197E-12 -.154E-13 -.259E+02   -.651E-14 -.244E-14 0.257E+02   -.167E-18 0.287E-18 0.229E+00
 -----------------------------------------------------------------------------------------------
   0.130E-10 0.521E-11 0.488E+00   -.572E-14 0.508E-13 0.355E-14   -.215E-17 -.415E-17 -.478E+00
 
 
 POSITION                                       TOTAL-FORCE (eV/Angst)
 -----------------------------------------------------------------------------------
      3.70010      1.85005      1.87513         0.000000     -0.000000     -0.005385
      3.70010      1.85005      5.61490         0.000000     -0.000000     -0.001027
      3.70010      1.85005      9.37664        -0.000000      0.000000      0.006269
      1.85005      1.85005      0.05679        -0.000000     -0.000000     -0.001941
      1.85005      1.85005      3.80013        -0.000000      0.000000     -0.001824
      1.85005      1.85005      7.46890        -0.000000      0.000000      0.006863
      1.85005      0.00000      1.87513         0.000000     -0.000000     -0.005385
      1.85005      0.00000      5.61490         0.000000     -0.000000     -0.001027
      1.85005      0.00000      9.37664        -0.000000      0.000000      0.006269
      3.70010      0.00000     11.23010         0.000000     -0.000000     -0.003872
      3.70010      0.00000      3.70658         0.000000     -0.000000      0.000189
      3.70010      0.00000      7.49507         0.000000     -0.000000      0.000869
 -----------------------------------------------------------------------------------
    total drift:                                0.000000      0.000000      0.009744


--------------------------------------------------------------------------------------------------------



  FREE ENERGIE OF THE ION-ELECTRON SYSTEM (eV)
  ---------------------------------------------------
  free  energy   TOTEN  =       -93.35936831 eV

  energy  without entropy=      -93.36919862  energy(sigma->0) =      -93.36264508
 
 d Force = 0.1376077E-04[ 0.859E-05, 0.189E-04]  d Energy = 0.1122120E-04 0.254E-05
 d Force = 0.7487617E-02[ 0.694E-02, 0.804E-02]  d Ewald  = 0.6840518E-02 0.647E-03


--------------------------------------------------------------------------------------------------------


    POTLOK:  cpu time      0.0359: real time      0.0361


--------------------------------------------------------------------------------------------------------


 Steepest descent step on ions:
 trial-energy change:   -0.000011  1 .order   -0.000014   -0.000019   -0.000009
  (g-gl).g = 0.192E-04      g.g   = 0.192E-04  gl.gl    = 0.000E+00
 g(Force)  = 0.189E-04   g(Stress)= 0.267E-06 ortho     = 0.000E+00
 gamma     =   0.00000
 trial     =   1.00000
 opt step  =   1.83353  (harmonic =   1.83353) maximal distance =0.00090740
 next E    =   -93.359375   (d E  =  -0.00002)


--------------------------------------------------------------------------------------------------------


  
 reached required accuracy - stopping structural energy minimisation
     LOOP+:  cpu time     55.4768: real time     56.1212
    4ORBIT:  cpu time      0.0000: real time      0.0000



 total charge

# of ion       s       p       d       tot
------------------------------------------
    1        0.354   6.336   6.036  12.725
    2        0.350   6.330   6.047  12.727
    3        0.350   6.329   6.024  12.703
    4        0.357   6.338   6.022  12.716
    5        0.355   6.336   6.024  12.716
    6        0.351   6.334   6.024  12.709
    7        0.354   6.336   6.036  12.725
    8        0.350   6.330   6.047  12.727
    9        0.350   6.329   6.024  12.703
   10        0.775   0.706   8.033   9.514
   11        0.779   0.701   8.038   9.518
   12        0.764   0.717   8.034   9.516
--------------------------------------------------
tot          5.489  59.122  78.388 142.999



 magnetization (x)

# of ion       s       p       d       tot
------------------------------------------
    1       -0.013  -0.006  -2.463  -2.482
    2        0.002  -0.012   2.610   2.600
    3        0.009   0.002   2.555   2.566
    4       -0.017  -0.022  -2.506  -2.545
    5        0.015   0.022   2.511   2.547
    6        0.002  -0.014   2.744   2.732
    7       -0.013  -0.006  -2.463  -2.482
    8        0.002  -0.012   2.610   2.600
    9        0.009   0.002   2.555   2.566
   10        0.008   0.014  -0.067  -0.046
   11       -0.009  -0.017   0.087   0.062
   12       -0.039  -0.097   0.407   0.272
--------------------------------------------------
tot         -0.044  -0.145   8.579   8.390
 

 total amount of memory used by VASP MPI-rank0   282731. kBytes
=======================================================================

   base      :      30000. kBytes
   nonl-proj :     102217. kBytes
   fftplans  :        888. kBytes
   grid      :       6813. kBytes
   one-center:        373. kBytes
   wavefun   :     142440. kBytes
 
  
  
 General timing and accounting informations for this job:
 ========================================================
  
                  Total CPU time used (sec):      301.745
                            User time (sec):      294.022
                          System time (sec):        7.723
                         Elapsed time (sec):      311.983
  
                   Maximum memory used (kb):     1198380.
                   Average memory used (kb):          N/A
  
                          Minor page faults:       182003
                          Major page faults:          293
                 Voluntary context switches:        10873
