       N       E                     dE             d eps       ncg     rms          ort
DAV:   1     0.177038557101E+04    0.17704E+04   -0.91630E+04 10752   0.199E+03
DAV:   2     0.655745836638E+01   -0.17638E+04   -0.16713E+04 10752   0.481E+02
DAV:   3    -0.102587141334E+03   -0.10914E+03   -0.10748E+03 10752   0.128E+02
DAV:   4    -0.104165702066E+03   -0.15786E+01   -0.15782E+01 10752   0.154E+01
DAV:   5    -0.104195806845E+03   -0.30105E-01   -0.30104E-01 10752   0.207E+00
SDA:   6    -0.577493316395E+02    0.46446E+02   -0.30104E-01 10752   0.232E+03 0.000E+00
CGA:   7    -0.871442604719E+02   -0.29395E+02   -0.29216E+02 10752   0.179E+02 0.565E+00
CGA:   8    -0.896451613173E+02   -0.25009E+01   -0.25187E+01 10752   0.591E+02 0.194E-01
CGA:   9    -0.914125897570E+02   -0.17674E+01   -0.12591E+01 10752   0.120E+02 0.248E+02
CGA:  10    -0.917733977647E+02   -0.36081E+00   -0.37906E+00 10752   0.459E+01-0.692E+00
CGA:  11    -0.928560482582E+02   -0.10827E+01   -0.10818E+01 10752   0.435E+01 0.110E-01
CGA:  12    -0.930185907850E+02   -0.16254E+00   -0.15971E+00 10752   0.298E+01 0.904E-01
CGA:  13    -0.932812022662E+02   -0.26261E+00   -0.26464E+00 10752   0.111E+01-0.102E-01
CGA:  14    -0.933673909416E+02   -0.86189E-01   -0.86746E-01 10752   0.594E+00-0.409E-02
CGA:  15    -0.933906856891E+02   -0.23295E-01   -0.23913E-01 10752   0.432E+00-0.132E-01
CGA:  16    -0.934429965725E+02   -0.52311E-01   -0.52331E-01 10752   0.146E+00-0.551E-03
CGA:  17    -0.934572322592E+02   -0.14236E-01   -0.14274E-01 10752   0.140E+00-0.359E-03
CGA:  18    -0.934642857944E+02   -0.70535E-02   -0.71551E-02 10752   0.148E+00-0.175E-02
CGA:  19    -0.934845846510E+02   -0.20299E-01   -0.20293E-01 10752   0.288E-01-0.404E-03
CGA:  20    -0.934933374819E+02   -0.87528E-02   -0.87384E-02 10752   0.133E+00 0.858E-04
CGA:  21    -0.934982898157E+02   -0.49523E-02   -0.50938E-02 10752   0.285E-01-0.290E-02
CGA:  22    -0.935003037319E+02   -0.20139E-02   -0.20190E-02 10752   0.102E-01-0.500E-04
CGA:  23    -0.935030034157E+02   -0.26997E-02   -0.27157E-02 10752   0.933E-02-0.134E-03
CGA:  24    -0.935032749435E+02   -0.27153E-03   -0.27033E-03 10752   0.232E-02-0.352E-04
CGA:  25    -0.935035742847E+02   -0.29934E-03   -0.29912E-03 10752   0.208E-02-0.130E-04
CGA:  26    -0.935039387451E+02   -0.36446E-03   -0.36448E-03 10752   0.453E-03-0.813E-06
CGA:  27    -0.935039992671E+02   -0.60522E-04   -0.60657E-04 10752   0.742E-03 0.112E-04
CGA:  28    -0.935040458889E+02   -0.46622E-04   -0.47636E-04 10752   0.754E-03 0.130E-04
CGA:  29    -0.935040937882E+02   -0.47899E-04   -0.49123E-04 10752   0.102E-03 0.160E-04
CGA:  30    -0.935041167644E+02   -0.22976E-04   -0.22349E-04 10752   0.487E-04 0.847E-05
CGA:  31    -0.935041210485E+02   -0.42841E-05   -0.42851E-05 10752   0.101E-03 0.239E-06
CGA:  32    -0.935041293186E+02   -0.82701E-05   -0.82009E-05 10752   0.378E-04-0.997E-06
CGA:  33    -0.935041325482E+02   -0.32296E-05   -0.31627E-05 10752   0.180E-04-0.115E-05
CGA:  34    -0.935041333666E+02   -0.81837E-06   -0.76675E-06 10752   0.162E-04-0.476E-06
CGA:  35    -0.935041362321E+02   -0.28655E-05   -0.31068E-05 10752   0.156E-04-0.349E-05
CGA:  36    -0.935041371340E+02   -0.90196E-06   -0.80509E-06 10752   0.640E-05-0.142E-05
   1 F= -.93504137E+02 E0= -.93505529E+02  d E =-.935041E+02  mag=    25.2043
       N       E                     dE             d eps       ncg     rms          ort
SDA:   1    -0.935019004281E+02    0.22358E-02    0.00000E+00 10752   0.121E-01 0.000E+00
CGA:   2    -0.935023311663E+02   -0.43074E-03   -0.43067E-03 10752   0.738E-02 0.485E-06
CGA:   3    -0.935035188785E+02   -0.11877E-02   -0.11876E-02 10752   0.318E-02 0.144E-05
CGA:   4    -0.935038355053E+02   -0.31663E-03   -0.31665E-03 10752   0.178E-02 0.826E-06
CGA:   5    -0.935040047642E+02   -0.16926E-03   -0.16927E-03 10752   0.234E-02 0.854E-07
CGA:   6    -0.935040894493E+02   -0.84685E-04   -0.84695E-04 10752   0.187E-03-0.457E-06
CGA:   7    -0.935041206882E+02   -0.31239E-04   -0.31296E-04 10752   0.140E-03-0.106E-05
CGA:   8    -0.935041332224E+02   -0.12534E-04   -0.12522E-04 10752   0.101E-03-0.450E-06
CGA:   9    -0.935041366193E+02   -0.33969E-05   -0.33921E-05 10752   0.283E-04-0.599E-07
CGA:  10    -0.935041418317E+02   -0.52123E-05   -0.51856E-05 10752   0.973E-05 0.386E-06
CGA:  11    -0.935041428966E+02   -0.10650E-05   -0.10666E-05 10752   0.144E-04 0.915E-07
CGA:  12    -0.935041436015E+02   -0.70486E-06   -0.70815E-06 10752   0.760E-05 0.608E-07
   2 F= -.93504144E+02 E0= -.93505535E+02  d E =-.646747E-05  mag=    25.2035
