       N       E                     dE             d eps       ncg     rms          rms(c)
DAV:   1     0.177220625694E+04    0.17722E+04   -0.84267E+04 43008   0.181E+03
DAV:   2     0.671406359893E+01   -0.17655E+04   -0.16728E+04 43040   0.482E+02
DAV:   3    -0.102603143063E+03   -0.10932E+03   -0.10765E+03 50464   0.128E+02
DAV:   4    -0.104185755020E+03   -0.15826E+01   -0.15821E+01 45888   0.154E+01
DAV:   5    -0.104216000513E+03   -0.30245E-01   -0.30244E-01 52608   0.207E+00    0.389E+01
DAV:   6    -0.100581247176E+03    0.36348E+01   -0.63126E+01 48576   0.507E+01    0.346E+01
DAV:   7    -0.958666825020E+02    0.47146E+01   -0.82049E+01 49856   0.397E+01    0.209E+01
DAV:   8    -0.941304066698E+02    0.17363E+01   -0.52933E+00 49952   0.127E+01    0.114E+01
DAV:   9    -0.954005639435E+02   -0.12702E+01   -0.16047E+01 52256   0.162E+01    0.203E+01
DAV:  10    -0.936048314500E+02    0.17957E+01   -0.97013E+00 52384   0.125E+01    0.686E+00
DAV:  11    -0.939381506589E+02   -0.33332E+00   -0.34804E+00 50880   0.114E+01    0.110E+01
DAV:  12    -0.934817005303E+02    0.45645E+00   -0.16498E+00 50656   0.671E+00    0.227E+00
DAV:  13    -0.935060822783E+02   -0.24382E-01   -0.57621E-02 49888   0.142E+00    0.126E+00
DAV:  14    -0.935225334049E+02   -0.16451E-01   -0.71672E-02 51136   0.284E+00    0.204E+00
DAV:  15    -0.935092471500E+02    0.13286E-01   -0.37555E-02 49760   0.188E+00    0.423E-01
DAV:  16    -0.935099859561E+02   -0.73881E-03   -0.41363E-03 54208   0.400E-01    0.368E-01
DAV:  17    -0.935098589499E+02    0.12701E-03   -0.12949E-03 52288   0.298E-01    0.125E-01
DAV:  18    -0.935099841348E+02   -0.12518E-03   -0.34694E-04 49792   0.121E-01    0.642E-02
DAV:  19    -0.935100203816E+02   -0.36247E-04   -0.11468E-04 51392   0.669E-02    0.472E-02
DAV:  20    -0.935100432769E+02   -0.22895E-04   -0.37559E-05 57120   0.402E-02    0.338E-02
DAV:  21    -0.935100453393E+02   -0.20624E-05   -0.48631E-05 50048   0.235E-02    0.247E-02
DAV:  22    -0.935100522658E+02   -0.69264E-05   -0.39840E-06 39424   0.150E-02    0.142E-02
DAV:  23    -0.935100564374E+02   -0.41716E-05   -0.46463E-06 31648   0.115E-02    0.137E-02
DAV:  24    -0.935100558452E+02    0.59211E-06   -0.91933E-07 26816   0.581E-03
   1 F= -.93510056E+02 E0= -.93510056E+02  d E =0.000000E+00  mag=    25.1805
