 vasp.6.4.3 19Mar24 (build Mar 26 2024 14:05:37) complex                        
  
 executed on             LinuxIFC date 2024.12.16  08:08:41
 running  128 mpi-ranks, on    1 nodes
 distrk:  each k-point on   32 cores,    4 groups
 distr:  one band on NCORE=   1 cores,   32 groups


--------------------------------------------------------------------------------------------------------


 INCAR:
   ALGO = All
   EDIFF = 1e-06
   EDIFFG = -0.01
   ENCUT = 520
   GGA = Pe
   IBRION = 2
   ISIF = 4
   ISMEAR = 1
   ISPIN = 2
   KPAR = 4
   LCHARG = True
   LORBIT = 11
   LREAL = False
   LWAVE = False
   MAGMOM = 1*2.732 1*2.733 1*2.732 1*2.737 2*2.735 1*2.732 1*2.733 1*2.732 3*0.305
   NELM = 200
   NSW = 100
   PREC = Accurate
   SIGMA = 0.2

 POTCAR:    PAW_PBE Fe_pv 02Aug2007               
 POTCAR:    PAW_PBE Pt 04Feb2005                  
 -----------------------------------------------------------------------------
|                                                                             |
|           W    W    AA    RRRRR   N    N  II  N    N   GGGG   !!!           |
|           W    W   A  A   R    R  NN   N  II  NN   N  G    G  !!!           |
|           W    W  A    A  R    R  N N  N  II  N N  N  G       !!!           |
|           W WW W  AAAAAA  RRRRR   N  N N  II  N  N N  G  GGG   !            |
|           WW  WW  A    A  R   R   N   NN  II  N   NN  G    G                |
|           W    W  A    A  R    R  N    N  II  N    N   GGGG   !!!           |
|                                                                             |
|     For optimal performance we recommend to set                             |
|       NCORE = 2 up to number-of-cores-per-socket                            |
|     NCORE specifies how many cores store one orbital (NPAR=cpu/NCORE).      |
|     This setting can greatly improve the performance of VASP for DFT.       |
|     The default, NCORE=1 might be grossly inefficient on modern             |
|     multi-core architectures or massively parallel machines. Do your        |
|     own testing! More info at https://www.vasp.at/wiki/index.php/NCORE      |
|     Unfortunately you need to use the default for GW and RPA                |
|     calculations (for HF NCORE is supported but not extensively tested      |
|     yet).                                                                   |
|                                                                             |
 -----------------------------------------------------------------------------

 POTCAR:    PAW_PBE Fe_pv 02Aug2007               
   SHA256 =  5d22e414b1f82158bf2c7ecb8b97b28fd0923e48cadc1c3bf74d524558f5dd32 Fe_pv/POTCAR          
   COPYR  = (c) Copyright 02Aug2007 Georg Kresse                                                    
   COPYR  = This file is part of the software VASP. Any use, copying, and all other rights are regul
   COPYR  = If you do not have a valid VASP license, you may not use, copy or distribute this file. 
   VRHFIN =Fe:  3pd7s1                                                                              
   LEXCH  = PE                                                                                      
   EATOM  =  2457.4239 eV,  180.6156 Ry                                                             
                                                                                                    
   TITEL  = PAW_PBE Fe_pv 02Aug2007                                                                 
   LULTRA =        F    use ultrasoft PP ?                                                          
   IUNSCR =        1    unscreen: 0-lin 1-nonlin 2-no                                               
   RPACOR =    1.750    partial core radius                                                         
   POMASS =   55.847; ZVAL   =   14.000    mass and valenz                                          
   RCORE  =    2.200    outmost cutoff radius                                                       
   RWIGS  =    2.200; RWIGS  =    1.164    wigner-seitz radius (au A)                               
   ENMAX  =  293.238; ENMIN  =  219.928 eV                                                          
   ICORE  =        3    local potential                                                             
   LCOR   =        T    correct aug charges                                                         
   LPAW   =        T    paw PP                                                                      
   EAUG   =  578.342                                                                                
   DEXC   =    0.000                                                                                
   RMAX   =    2.249    core radius for proj-oper                                                   
   RAUG   =    1.300    factor for augmentation sphere                                              
   RDEP   =    2.296    radius for radial grids                                                     
   RDEPT  =    1.766    core radius for aug-charge                                                  
                                                                                                    
   Atomic configuration                                                                             
    8 entries                                                                                       
     n  l   j            E        occ.                                                              
     1  0  0.50     -6993.8440   2.0000                                                             
     2  0  0.50      -814.6047   2.0000                                                             
     2  1  1.50      -693.3689   6.0000                                                             
     3  0  0.50       -89.4732   2.0000                                                             
     3  1  1.50       -55.6373   6.0000                                                             
     3  2  2.50        -3.8151   7.0000                                                             
     4  0  0.50        -4.2551   1.0000                                                             
     4  3  2.50        -1.3606   0.0000                                                             
   Description                                                                                      
     l       E           TYP  RCUT    TYP  RCUT                                                     
     1    -55.6372668     23  2.000                                                                 
     1     -5.4423304     23  2.000                                                                 
     2     -3.8151096     23  2.200                                                                 
     2     -5.1756922     23  2.200                                                                 
     0     -4.2550951     23  2.200                                                                 
     0     27.2116520     23  2.200                                                                 
     3     -1.3605826     23  2.200                                                                 
  local pseudopotential read in
  partial core-charges read in
  partial kinetic energy density read in
  atomic valenz-charges read in
  non local Contribution for L=           1  read in
    real space projection operators read in
  non local Contribution for L=           1  read in
    real space projection operators read in
  non local Contribution for L=           2  read in
    real space projection operators read in
  non local Contribution for L=           2  read in
    real space projection operators read in
  non local Contribution for L=           0  read in
    real space projection operators read in
  non local Contribution for L=           0  read in
    real space projection operators read in
    PAW grid and wavefunctions read in
 
   number of l-projection  operators is LMAX  =           6
   number of lm-projection operators is LMMAX =          18
 
 POTCAR:    PAW_PBE Pt 04Feb2005                  
   SHA256 =  3ed90460adef76debcff1cfb73ee1349b515b1a3db03439735b44de3a8db7dc8 Pt/POTCAR             
   COPYR  = (c) Copyright 04Feb2005 Georg Kresse                                                    
   COPYR  = This file is part of the software VASP. Any use, copying, and all other rights are regul
   COPYR  = If you do not have a valid VASP license, you may not use, copy or distribute this file. 
   VRHFIN =Pt: s1d9                                                                                 
   LEXCH  = PE                                                                                      
   EATOM  =   729.1176 eV,   53.5886 Ry                                                             
                                                                                                    
   TITEL  = PAW_PBE Pt 04Feb2005                                                                    
   LULTRA =        F    use ultrasoft PP ?                                                          
   IUNSCR =        1    unscreen: 0-lin 1-nonlin 2-no                                               
   RPACOR =    2.330    partial core radius                                                         
   POMASS =  195.080; ZVAL   =   10.000    mass and valenz                                          
   RCORE  =    2.600    outmost cutoff radius                                                       
   RWIGS  =    2.750; RWIGS  =    1.455    wigner-seitz radius (au A)                               
   ENMAX  =  230.283; ENMIN  =  172.712 eV                                                          
   ICORE  =        3    local potential                                                             
   LCOR   =        T    correct aug charges                                                         
   LPAW   =        T    paw PP                                                                      
   EAUG   =  358.966                                                                                
   DEXC   =    0.000                                                                                
   RMAX   =    2.658    core radius for proj-oper                                                   
   RAUG   =    1.300    factor for augmentation sphere                                              
   RDEP   =    2.761    radius for radial grids                                                     
   RDEPT  =    2.203    core radius for aug-charge                                                  
                                                                                                    
   Atomic configuration                                                                             
   16 entries                                                                                       
     n  l   j            E        occ.                                                              
     1  0  0.50    -78401.1885   2.0000                                                             
     2  0  0.50    -13770.7750   2.0000                                                             
     2  1  1.50    -11931.0468   6.0000                                                             
     3  0  0.50     -3234.7234   2.0000                                                             
     3  1  1.50     -2699.2216   6.0000                                                             
     3  2  2.50     -2119.5714  10.0000                                                             
     4  0  0.50      -695.1528   2.0000                                                             
     4  1  1.50      -519.6034   6.0000                                                             
     4  2  2.50      -306.6786  10.0000                                                             
     4  3  3.50       -70.1041  14.0000                                                             
     5  0  0.50      -101.7747   2.0000                                                             
     5  1  1.50       -55.9873   6.0000                                                             
     5  2  2.50        -6.1423   9.0000                                                             
     6  0  0.50        -5.6573   1.0000                                                             
     6  1  1.50        -6.8029   0.0000                                                             
     5  3  2.50        -1.3606   0.0000                                                             
   Description                                                                                      
     l       E           TYP  RCUT    TYP  RCUT                                                     
     2     -6.1423404     23  2.500                                                                 
     2     -7.5029230     23  2.500                                                                 
     0     -5.6573207     23  2.500                                                                 
     0      0.7416693     23  2.500                                                                 
     1     -2.7211652     23  2.600                                                                 
     1     20.4087390     23  2.600                                                                 
     3     -1.3605826     23  2.500                                                                 
  local pseudopotential read in
  partial core-charges read in
  partial kinetic energy density read in
  atomic valenz-charges read in
  non local Contribution for L=           2  read in
    real space projection operators read in
  non local Contribution for L=           2  read in
    real space projection operators read in
  non local Contribution for L=           0  read in
    real space projection operators read in
  non local Contribution for L=           0  read in
    real space projection operators read in
  non local Contribution for L=           1  read in
    real space projection operators read in
  non local Contribution for L=           1  read in
    real space projection operators read in
    PAW grid and wavefunctions read in
 
   number of l-projection  operators is LMAX  =           6
   number of lm-projection operators is LMMAX =          18
 
  PAW_PBE Fe_pv 02Aug2007               :
 energy of atom  1       EATOM=-2457.4239
 kinetic energy error for atom=    0.0062 (will be added to EATOM!!)
  PAW_PBE Pt 04Feb2005                  :
 energy of atom  2       EATOM= -729.1176
 kinetic energy error for atom=    0.0032 (will be added to EATOM!!)
 
 
 POSCAR: Fe9 Pt3
  positions in direct lattice
  No initial velocities read in


 exchange-correlation table for PE
   RHO(1)=    0.500       N(1)  =     2000
   RHO(2)=  100.500       N(2)  =     4000
 


--------------------------------------------------------------------------------------------------------


 ion  position               nearest neighbor table
   1  0.000  0.500  0.167-   7 2.63   7 2.63   7 2.63   7 2.63   5 2.63   5 2.63   4 2.63  10 2.63
                             4 2.63  10 2.63  11 2.63  11 2.63
   2  0.000  0.500  0.500-   8 2.63   8 2.63   8 2.63   8 2.63  11 2.63  12 2.63  12 2.63  11 2.63
                             5 2.63   6 2.63   5 2.63   6 2.63
   3  0.000  0.500  0.833-   9 2.63   9 2.63   9 2.63   9 2.63   6 2.63   6 2.63   4 2.63  10 2.63
                             4 2.63  10 2.63  12 2.63  12 2.63
   4  0.500  0.500  0.000-  10 2.63  10 2.63  10 2.63  10 2.63   1 2.63   7 2.63   9 2.63   3 2.63
                             1 2.63   3 2.63   7 2.63   9 2.63
   5  0.500  0.500  0.333-  11 2.63  11 2.63  11 2.63  11 2.63   7 2.63   1 2.63   1 2.63   7 2.63
                             8 2.63   2 2.63   8 2.63   2 2.63
   6  0.500  0.500  0.667-  12 2.63  12 2.63  12 2.63  12 2.63   9 2.63   3 2.63   3 2.63   9 2.63
                             2 2.63   8 2.63   2 2.63   8 2.63
   7  0.500  0.000  0.167-   1 2.63   1 2.63   1 2.63   1 2.63   5 2.63   5 2.63  10 2.63   4 2.63
                            10 2.63   4 2.63  11 2.63  11 2.63
   8  0.500  0.000  0.500-   2 2.63   2 2.63   2 2.63   2 2.63  12 2.63  11 2.63  12 2.63  11 2.63
                             6 2.63   5 2.63   5 2.63   6 2.63
   9  0.500  0.000  0.833-   3 2.63   3 2.63   3 2.63   3 2.63   6 2.63   6 2.63  10 2.63   4 2.63
                            10 2.63   4 2.63  12 2.63  12 2.63
  10  0.000  0.000  0.000-   4 2.63   4 2.63   4 2.63   4 2.63   9 2.63   1 2.63   3 2.63   3 2.63
                             1 2.63   7 2.63   9 2.63   7 2.63
  11  0.000  0.000  0.333-   5 2.63   5 2.63   5 2.63   5 2.63   1 2.63   7 2.63   7 2.63   1 2.63
                             2 2.63   2 2.63   8 2.63   8 2.63
  12  0.000  0.000  0.667-   6 2.63   6 2.63   6 2.63   6 2.63   3 2.63   9 2.63   9 2.63   3 2.63
                             2 2.63   8 2.63   8 2.63   2 2.63
 
  LATTYP: Found a simple tetragonal cell.
 ALAT       =     3.7153908006
 C/A-ratio  =     3.0026673146
  
  Lattice vectors:
  
 A1 = (   3.7153908006,   0.0000000000,   0.0000000000)
 A2 = (   0.0000000000,   3.7153908006,   0.0000000000)
 A3 = (   0.0000000000,   0.0000000000,  11.1560825181)


Analysis of symmetry for initial positions (statically):
=====================================================================
 Subroutine PRICEL returns:
 Original cell was already a primitive cell.
 

 Routine SETGRP: Setting up the symmetry group for a 
 simple tetragonal supercell.


 Subroutine GETGRP returns: Found 16 space group operations
 (whereof 16 operations were pure point group operations)
 out of a pool of 16 trial point group operations.


The static configuration has the point symmetry D_4h.


Analysis of symmetry for dynamics (positions and initial velocities):
=====================================================================
 Subroutine PRICEL returns:
 Original cell was already a primitive cell.
 

 Routine SETGRP: Setting up the symmetry group for a 
 simple tetragonal supercell.


 Subroutine GETGRP returns: Found 16 space group operations
 (whereof 16 operations were pure point group operations)
 out of a pool of 16 trial point group operations.


The dynamic configuration has the point symmetry D_4h.


Analysis of structural, dynamic, and magnetic symmetry:
=====================================================================
 Subroutine PRICEL returns:
 Original cell was already a primitive cell.
 

 Routine SETGRP: Setting up the symmetry group for a 
 simple tetragonal supercell.


 Subroutine GETGRP returns: Found 16 space group operations
 (whereof 16 operations were pure point group operations)
 out of a pool of 16 trial point group operations.


The overall configuration has the point symmetry D_4h.


 Subroutine INISYM returns: Found 16 space group operations
 (whereof 16 operations are pure point group operations),
 and found     1 'primitive' translations


----------------------------------------------------------------------------------------

                                     Primitive cell                                     

  volume of cell :     154.0000

  direct lattice vectors                    reciprocal lattice vectors
     3.715390801  0.000000000  0.000000000     0.269150691  0.000000000  0.000000000
     0.000000000  3.715390801  0.000000000     0.000000000  0.269150691  0.000000000
     0.000000000  0.000000000 11.156082518     0.000000000  0.000000000  0.089637200

  length of vectors
     3.715390801  3.715390801 11.156082518     0.269150691  0.269150691  0.089637200

  position of ions in fractional coordinates (direct lattice)
     0.000000000  0.500000000  0.166616708
     0.000000000  0.500000000  0.500000000
     0.000000000  0.500000000  0.833383292
     0.500000000  0.500000000  0.000000000
     0.500000000  0.500000000  0.333193961
     0.500000000  0.500000000  0.666806039
     0.500000000  0.000000000  0.166616708
     0.500000000  0.000000000  0.500000000
     0.500000000  0.000000000  0.833383292
     0.000000000  0.000000000  0.000000000
     0.000000000  0.000000000  0.333287032
     0.000000000  0.000000000  0.666712968

  ion indices of the primitive-cell ions
   primitive index   ion index
                 1           1
                 2           2
                 3           3
                 4           4
                 5           5
                 6           6
                 7           7
                 8           8
                 9           9
                10          10
                11          11
                12          12

----------------------------------------------------------------------------------------

 
 
 KPOINTS: pymatgen with grid density = 8800 / numb

Automatic generation of k-mesh.
 Grid dimensions read from file:
 generate k-points for:   13   13    4

 Generating k-lattice:

  Cartesian coordinates                     Fractional coordinates (reciprocal lattice)
     0.020703899  0.000000000  0.000000000     0.076923077  0.000000000  0.000000000
     0.000000000  0.020703899  0.000000000     0.000000000  0.076923077  0.000000000
     0.000000000  0.000000000  0.022409300     0.000000000  0.000000000  0.250000000

  Length of vectors
     0.020703899  0.020703899  0.022409300

  Shift w.r.t. Gamma in fractional coordinates (k-lattice)
     0.000000000  0.000000000  0.000000000

 
 Subroutine IBZKPT returns following result:
 ===========================================
 
 Found     84 irreducible k-points:
 
 Following reciprocal coordinates:
            Coordinates               Weight
  0.000000  0.000000  0.000000      1.000000
  0.076923  0.000000  0.000000      4.000000
  0.153846  0.000000  0.000000      4.000000
  0.230769  0.000000  0.000000      4.000000
  0.307692  0.000000  0.000000      4.000000
  0.384615  0.000000  0.000000      4.000000
  0.461538  0.000000  0.000000      4.000000
  0.076923  0.076923  0.000000      4.000000
  0.153846  0.076923  0.000000      8.000000
  0.230769  0.076923  0.000000      8.000000
  0.307692  0.076923  0.000000      8.000000
  0.384615  0.076923  0.000000      8.000000
  0.461538  0.076923  0.000000      8.000000
  0.153846  0.153846  0.000000      4.000000
  0.230769  0.153846  0.000000      8.000000
  0.307692  0.153846  0.000000      8.000000
  0.384615  0.153846  0.000000      8.000000
  0.461538  0.153846  0.000000      8.000000
  0.230769  0.230769  0.000000      4.000000
  0.307692  0.230769  0.000000      8.000000
  0.384615  0.230769  0.000000      8.000000
  0.461538  0.230769  0.000000      8.000000
  0.307692  0.307692  0.000000      4.000000
  0.384615  0.307692  0.000000      8.000000
  0.461538  0.307692  0.000000      8.000000
  0.384615  0.384615  0.000000      4.000000
  0.461538  0.384615  0.000000      8.000000
  0.461538  0.461538  0.000000      4.000000
  0.000000  0.000000  0.250000      2.000000
  0.076923  0.000000  0.250000      8.000000
  0.153846  0.000000  0.250000      8.000000
  0.230769  0.000000  0.250000      8.000000
  0.307692  0.000000  0.250000      8.000000
  0.384615  0.000000  0.250000      8.000000
  0.461538  0.000000  0.250000      8.000000
  0.076923  0.076923  0.250000      8.000000
  0.153846  0.076923  0.250000     16.000000
  0.230769  0.076923  0.250000     16.000000
  0.307692  0.076923  0.250000     16.000000
  0.384615  0.076923  0.250000     16.000000
  0.461538  0.076923  0.250000     16.000000
  0.153846  0.153846  0.250000      8.000000
  0.230769  0.153846  0.250000     16.000000
  0.307692  0.153846  0.250000     16.000000
  0.384615  0.153846  0.250000     16.000000
  0.461538  0.153846  0.250000     16.000000
  0.230769  0.230769  0.250000      8.000000
  0.307692  0.230769  0.250000     16.000000
  0.384615  0.230769  0.250000     16.000000
  0.461538  0.230769  0.250000     16.000000
  0.307692  0.307692  0.250000      8.000000
  0.384615  0.307692  0.250000     16.000000
  0.461538  0.307692  0.250000     16.000000
  0.384615  0.384615  0.250000      8.000000
  0.461538  0.384615  0.250000     16.000000
  0.461538  0.461538  0.250000      8.000000
  0.000000  0.000000  0.500000      1.000000
  0.076923  0.000000  0.500000      4.000000
  0.153846  0.000000  0.500000      4.000000
  0.230769  0.000000  0.500000      4.000000
  0.307692  0.000000  0.500000      4.000000
  0.384615  0.000000  0.500000      4.000000
  0.461538  0.000000  0.500000      4.000000
  0.076923  0.076923  0.500000      4.000000
  0.153846  0.076923  0.500000      8.000000
  0.230769  0.076923  0.500000      8.000000
  0.307692  0.076923  0.500000      8.000000
  0.384615  0.076923  0.500000      8.000000
  0.461538  0.076923  0.500000      8.000000
  0.153846  0.153846  0.500000      4.000000
  0.230769  0.153846  0.500000      8.000000
  0.307692  0.153846  0.500000      8.000000
  0.384615  0.153846  0.500000      8.000000
  0.461538  0.153846  0.500000      8.000000
  0.230769  0.230769  0.500000      4.000000
  0.307692  0.230769  0.500000      8.000000
  0.384615  0.230769  0.500000      8.000000
  0.461538  0.230769  0.500000      8.000000
  0.307692  0.307692  0.500000      4.000000
  0.384615  0.307692  0.500000      8.000000
  0.461538  0.307692  0.500000      8.000000
  0.384615  0.384615  0.500000      4.000000
  0.461538  0.384615  0.500000      8.000000
  0.461538  0.461538  0.500000      4.000000
 
 Following cartesian coordinates:
            Coordinates               Weight
  0.000000  0.000000  0.000000      1.000000
  0.020704  0.000000  0.000000      4.000000
  0.041408  0.000000  0.000000      4.000000
  0.062112  0.000000  0.000000      4.000000
  0.082816  0.000000  0.000000      4.000000
  0.103519  0.000000  0.000000      4.000000
  0.124223  0.000000  0.000000      4.000000
  0.020704  0.020704  0.000000      4.000000
  0.041408  0.020704  0.000000      8.000000
  0.062112  0.020704  0.000000      8.000000
  0.082816  0.020704  0.000000      8.000000
  0.103519  0.020704  0.000000      8.000000
  0.124223  0.020704  0.000000      8.000000
  0.041408  0.041408  0.000000      4.000000
  0.062112  0.041408  0.000000      8.000000
  0.082816  0.041408  0.000000      8.000000
  0.103519  0.041408  0.000000      8.000000
  0.124223  0.041408  0.000000      8.000000
  0.062112  0.062112  0.000000      4.000000
  0.082816  0.062112  0.000000      8.000000
  0.103519  0.062112  0.000000      8.000000
  0.124223  0.062112  0.000000      8.000000
  0.082816  0.082816  0.000000      4.000000
  0.103519  0.082816  0.000000      8.000000
  0.124223  0.082816  0.000000      8.000000
  0.103519  0.103519  0.000000      4.000000
  0.124223  0.103519  0.000000      8.000000
  0.124223  0.124223  0.000000      4.000000
  0.000000  0.000000  0.022409      2.000000
  0.020704  0.000000  0.022409      8.000000
  0.041408  0.000000  0.022409      8.000000
  0.062112  0.000000  0.022409      8.000000
  0.082816  0.000000  0.022409      8.000000
  0.103519  0.000000  0.022409      8.000000
  0.124223  0.000000  0.022409      8.000000
  0.020704  0.020704  0.022409      8.000000
  0.041408  0.020704  0.022409     16.000000
  0.062112  0.020704  0.022409     16.000000
  0.082816  0.020704  0.022409     16.000000
  0.103519  0.020704  0.022409     16.000000
  0.124223  0.020704  0.022409     16.000000
  0.041408  0.041408  0.022409      8.000000
  0.062112  0.041408  0.022409     16.000000
  0.082816  0.041408  0.022409     16.000000
  0.103519  0.041408  0.022409     16.000000
  0.124223  0.041408  0.022409     16.000000
  0.062112  0.062112  0.022409      8.000000
  0.082816  0.062112  0.022409     16.000000
  0.103519  0.062112  0.022409     16.000000
  0.124223  0.062112  0.022409     16.000000
  0.082816  0.082816  0.022409      8.000000
  0.103519  0.082816  0.022409     16.000000
  0.124223  0.082816  0.022409     16.000000
  0.103519  0.103519  0.022409      8.000000
  0.124223  0.103519  0.022409     16.000000
  0.124223  0.124223  0.022409      8.000000
  0.000000  0.000000  0.044819      1.000000
  0.020704  0.000000  0.044819      4.000000
  0.041408  0.000000  0.044819      4.000000
  0.062112  0.000000  0.044819      4.000000
  0.082816  0.000000  0.044819      4.000000
  0.103519  0.000000  0.044819      4.000000
  0.124223  0.000000  0.044819      4.000000
  0.020704  0.020704  0.044819      4.000000
  0.041408  0.020704  0.044819      8.000000
  0.062112  0.020704  0.044819      8.000000
  0.082816  0.020704  0.044819      8.000000
  0.103519  0.020704  0.044819      8.000000
  0.124223  0.020704  0.044819      8.000000
  0.041408  0.041408  0.044819      4.000000
  0.062112  0.041408  0.044819      8.000000
  0.082816  0.041408  0.044819      8.000000
  0.103519  0.041408  0.044819      8.000000
  0.124223  0.041408  0.044819      8.000000
  0.062112  0.062112  0.044819      4.000000
  0.082816  0.062112  0.044819      8.000000
  0.103519  0.062112  0.044819      8.000000
  0.124223  0.062112  0.044819      8.000000
  0.082816  0.082816  0.044819      4.000000
  0.103519  0.082816  0.044819      8.000000
  0.124223  0.082816  0.044819      8.000000
  0.103519  0.103519  0.044819      4.000000
  0.124223  0.103519  0.044819      8.000000
  0.124223  0.124223  0.044819      4.000000
 


--------------------------------------------------------------------------------------------------------




 Dimension of arrays:
   k-points           NKPTS =     84   k-points in BZ     NKDIM =     84   number of bands    NBANDS=    128
   number of dos      NEDOS =    301   number of ions     NIONS =     12
   non local maximal  LDIM  =      6   non local SUM 2l+1 LMDIM =     18
   total plane-waves  NPLWV =  65856
   max r-space proj   IRMAX =      1   max aug-charges    IRDMAX=  26097
   dimension x,y,z NGX =    28 NGY =   28 NGZ =   84
   dimension x,y,z NGXF=    56 NGYF=   56 NGZF=  168
   support grid    NGXF=    56 NGYF=   56 NGZF=  168
   ions per type =               9   3
   NGX,Y,Z   is equivalent  to a cutoff of  12.53, 12.53, 12.52 a.u.
   NGXF,Y,Z  is equivalent  to a cutoff of  25.06, 25.06, 25.04 a.u.

 SYSTEM =  unknown system                          
 POSCAR =  Fe9 Pt3                                 

 Startparameter for this run:
   NWRITE =      2    write-flag & timer
   PREC   = accura    normal or accurate (medium, high low for compatibility)
   ISTART =      0    job   : 0-new  1-cont  2-samecut
   ICHARG =      2    charge: 1-file 2-atom 10-const
   ISPIN  =      2    spin polarized calculation?
   LNONCOLLINEAR =      F non collinear calculations
   LSORBIT =      F    spin-orbit coupling
   INIWAV =      1    electr: 0-lowe 1-rand  2-diag
   LASPH  =      F    aspherical Exc in radial PAW
 Electronic Relaxation 1
   ENCUT  =  520.0 eV  38.22 Ry    6.18 a.u.   6.91  6.91 20.74*2*pi/ulx,y,z
   ENINI  =  520.0     initial cutoff
   ENAUG  =  578.3 eV  augmentation charge cutoff
   NELM   =    200;   NELMIN=  2; NELMDL=  0     # of ELM steps 
   EDIFF  = 0.1E-05   stopping-criterion for ELM
   LREAL  =      F    real-space projection
   NLSPLINE    = F    spline interpolate recip. space projectors
   LCOMPAT=      F    compatible to vasp.4.4
   GGA_COMPAT  = T    GGA compatible to vasp.4.4-vasp.4.6
   LMAXPAW     = -100 max onsite density
   LMAXMIX     =    2 max onsite mixed and CHGCAR
   VOSKOWN=      0    Vosko Wilk Nusair interpolation
   ROPT   =    0.00000   0.00000
 Ionic relaxation
   EDIFFG = -.1E-01   stopping-criterion for IOM
   NSW    =    100    number of steps for IOM
   NBLOCK =      1;   KBLOCK =    100    inner block; outer block 
   IBRION =      2    ionic relax: 0-MD 1-quasi-New 2-CG
   NFREE  =      1    steps in history (QN), initial steepest desc. (CG)
   ISIF   =      4    stress and relaxation
   IWAVPR =     11    prediction:  0-non 1-charg 2-wave 3-comb
   ISYM   =      2    0-nonsym 1-usesym 2-fastsym
   LCORR  =      T    Harris-Foulkes like correction to forces

   POTIM  = 0.5000    time-step for ionic-motion
   TEIN   =    0.0    initial temperature
   TEBEG  =    0.0;   TEEND  =   0.0 temperature during run
   SMASS  =  -3.00    Nose mass-parameter (am)
   estimated Nose-frequenzy (Omega)   =  0.10E-29 period in steps = 0.13E+47 mass=  -0.315E-27a.u.
   SCALEE = 1.0000    scale energy and forces
   NPACO  =    256;   APACO  = 10.0  distance and # of slots for P.C.
   PSTRESS=    0.0 pullay stress

  Mass of Ions in am
   POMASS =  55.85195.08
  Ionic Valenz
   ZVAL   =  14.00 10.00
  Atomic Wigner-Seitz radii
   RWIGS  =  -1.00 -1.00
  virtual crystal weights 
   VCA    =   1.00  1.00
   NELECT =     156.0000    total number of electrons
   NUPDOWN=      -1.0000    fix difference up-down

 DOS related values:
   EMIN   =  10.00;   EMAX   =-10.00  energy-range for DOS
   EFERMI =   0.00;   METHOD = LEGACY      
   ISMEAR =     1;   SIGMA  =   0.20  broadening in eV -4-tet -1-fermi 0-gaus

 Electronic relaxation 2 (details)
   IALGO  =     58    algorithm
   LDIAG  =      T    sub-space diagonalisation (order eigenvalues)
   LSUBROT=      F    optimize rotation matrix (better conditioning)
   TURBO    =      0    0=normal 1=particle mesh
   IRESTART =      0    0=no restart 2=restart with 2 vectors
   NREBOOT  =      0    no. of reboots
   NMIN     =      0    reboot dimension
   EREF     =   0.00    reference energy to select bands
   IMIX   =      4    mixing-type and parameters
     AMIX     =   0.40;   BMIX     =  1.00
     AMIX_MAG =   1.60;   BMIX_MAG =  1.00
     AMIN     =   0.10
     WC   =   100.;   INIMIX=   1;  MIXPRE=   1;  MAXMIX= -45

 Intra band minimization:
   WEIMIN = 0.0010     energy-eigenvalue tresh-hold
   EBREAK =  0.20E-08  absolut break condition
   DEPER  =   0.30     relativ break condition  

   TIME   =   0.40     timestep for ELM

  volume/ion in A,a.u.               =      12.83        86.60
  Fermi-wavevector in a.u.,A,eV,Ry     =   1.644155  3.107003 36.779896  2.703246
  Thomas-Fermi vector in A             =   2.734169
 
 Write flags
   LWAVE        =      F    write WAVECAR
   LDOWNSAMPLE  =      F    k-point downsampling of WAVECAR
   LCHARG       =      T    write CHGCAR
   LVTOT        =      F    write LOCPOT, total local potential
   LVHAR        =      F    write LOCPOT, Hartree potential only
   WRT_POTENTIAL= false  ! write potential to hdf5 file
   LELF         =      F    write electronic localiz. function (ELF)
   LORBIT       =     11    0 simple, 1 ext, 2 COOP (PROOUT), +10 PAW based schemes


 Dipole corrections
   LMONO      =      F    monopole corrections only (constant potential shift)
   LDIPOL     =      F    correct potential (dipole corrections)
   IDIPOL     =      0    1-x, 2-y, 3-z, 4-all directions 
   EPSILON    =  1.0000000 bulk dielectric constant
   LVACPOTAV  =      F  vacuum potentials using an averaging scheme for the charge density
   VACPOTFLAT =  0.1000000 required flatness to determine vacuum potential
 Exchange correlation treatment:
   GGA     = PE    functional components
   XC_C    = 1    coefficients multiplying the functional components
   LIBXC   =     F    Libxc                    
   VOSKOWN =     0    Vosko Wilk Nusair interpolation
   LHFCALC =     F    Hartree Fock is set to
   LHFONE  =     F    Hartree Fock one center treatment
   AEXX    =    0.0000 exact exchange contribution

 Parameters of functionals:
   PE:
     No parameter
 
 Van der Waals corrections
   IVDW    =     0    specifies the selected vdW correction

 Linear response parameters
   LEPSILON=     F    determine dielectric tensor
   LRPA    =     F    only Hartree local field effects (RPA)
   LNABLA  =     F    use nabla operator in PAW spheres
   LVEL    =     F    velocity operator in full k-point grid
   CSHIFT  =0.1000    complex shift for real part using Kramers Kronig
   OMEGAMAX=  -1.0    maximum frequency
   DEG_THRESHOLD= 0.2000000E-02 threshold for treating states as degnerate
   RTIME   =   -0.100 relaxation time in fs
  (WPLASMAI=    0.000 imaginary part of plasma frequency in eV, 0.658/RTIME)
   DFIELD  = 0.0000000 0.0000000 0.0000000 field for delta impulse in time
 
  Optional k-point grid parameters
   LKPOINTS_OPT  =     F    use optional k-point grid
   KPOINTS_OPT_MODE=     1    mode for optional k-point grid
 
 Orbital magnetization related:
   ORBITALMAG=     F  switch on orbital magnetization
   LCHIMAG   =     F  perturbation theory with respect to B field
   DQ        =  0.001000  dq finite difference perturbation B field
   LLRAUG    =     F  two centre corrections for induced B field
   LBONE     =     F  B-component reconstruction in AE one-centre
   LVGVCALC  =     T  calculate vGv susceptibility
   LVGVAPPL  =     F  apply vGv susceptibility instead of pGv for G=0

 Random number generation:
   RANDOM_GENERATOR = DEFAULT
   PCG_SEED         = not used


--------------------------------------------------------------------------------------------------------


 conjugate gradient relaxation of ions
 charge density and potential will be updated during run
 spin polarized calculation
 Conjugate gradient for all bands (Freysoldt, et al. PRB 79, 241103 (2009))
 preconditioned conjugated gradient                                        
 perform sub-space diagonalisation
    before iterative eigenvector-optimisation
 modified Broyden-mixing scheme, WC =      100.0
 initial mixing is a Kerker type mixing with AMIX =  0.4000 and BMIX =      1.0000
 Hartree-type preconditioning will be used
 using additional bands           50
 reciprocal scheme for non local part
 use partial core corrections
 no Harris-corrections to forces 
 use gradient corrections 
 use of overlap-Matrix (Vanderbilt PP)
 Methfessel and Paxton  Order N= 1 SIGMA  =   0.20


--------------------------------------------------------------------------------------------------------


  energy-cutoff  :      520.00
  volume of cell :      154.00
      direct lattice vectors                 reciprocal lattice vectors
     3.715390801  0.000000000  0.000000000     0.269150691  0.000000000  0.000000000
     0.000000000  3.715390801  0.000000000     0.000000000  0.269150691  0.000000000
     0.000000000  0.000000000 11.156082518     0.000000000  0.000000000  0.089637200

  length of vectors
     3.715390801  3.715390801 11.156082518     0.269150691  0.269150691  0.089637200


 
 k-points in units of 2pi/SCALE and weight: pymatgen with grid density = 8800 / numb
   0.00000000  0.00000000  0.00000000       0.001
   0.02070390  0.00000000  0.00000000       0.006
   0.04140780  0.00000000  0.00000000       0.006
   0.06211170  0.00000000  0.00000000       0.006
   0.08281560  0.00000000  0.00000000       0.006
   0.10351950  0.00000000  0.00000000       0.006
   0.12422340  0.00000000  0.00000000       0.006
   0.02070390  0.02070390  0.00000000       0.006
   0.04140780  0.02070390  0.00000000       0.012
   0.06211170  0.02070390  0.00000000       0.012
   0.08281560  0.02070390  0.00000000       0.012
   0.10351950  0.02070390  0.00000000       0.012
   0.12422340  0.02070390  0.00000000       0.012
   0.04140780  0.04140780  0.00000000       0.006
   0.06211170  0.04140780  0.00000000       0.012
   0.08281560  0.04140780  0.00000000       0.012
   0.10351950  0.04140780  0.00000000       0.012
   0.12422340  0.04140780  0.00000000       0.012
   0.06211170  0.06211170  0.00000000       0.006
   0.08281560  0.06211170  0.00000000       0.012
   0.10351950  0.06211170  0.00000000       0.012
   0.12422340  0.06211170  0.00000000       0.012
   0.08281560  0.08281560  0.00000000       0.006
   0.10351950  0.08281560  0.00000000       0.012
   0.12422340  0.08281560  0.00000000       0.012
   0.10351950  0.10351950  0.00000000       0.006
   0.12422340  0.10351950  0.00000000       0.012
   0.12422340  0.12422340  0.00000000       0.006
   0.00000000  0.00000000  0.02240930       0.003
   0.02070390  0.00000000  0.02240930       0.012
   0.04140780  0.00000000  0.02240930       0.012
   0.06211170  0.00000000  0.02240930       0.012
   0.08281560  0.00000000  0.02240930       0.012
   0.10351950  0.00000000  0.02240930       0.012
   0.12422340  0.00000000  0.02240930       0.012
   0.02070390  0.02070390  0.02240930       0.012
   0.04140780  0.02070390  0.02240930       0.024
   0.06211170  0.02070390  0.02240930       0.024
   0.08281560  0.02070390  0.02240930       0.024
   0.10351950  0.02070390  0.02240930       0.024
   0.12422340  0.02070390  0.02240930       0.024
   0.04140780  0.04140780  0.02240930       0.012
   0.06211170  0.04140780  0.02240930       0.024
   0.08281560  0.04140780  0.02240930       0.024
   0.10351950  0.04140780  0.02240930       0.024
   0.12422340  0.04140780  0.02240930       0.024
   0.06211170  0.06211170  0.02240930       0.012
   0.08281560  0.06211170  0.02240930       0.024
   0.10351950  0.06211170  0.02240930       0.024
   0.12422340  0.06211170  0.02240930       0.024
   0.08281560  0.08281560  0.02240930       0.012
   0.10351950  0.08281560  0.02240930       0.024
   0.12422340  0.08281560  0.02240930       0.024
   0.10351950  0.10351950  0.02240930       0.012
   0.12422340  0.10351950  0.02240930       0.024
   0.12422340  0.12422340  0.02240930       0.012
   0.00000000  0.00000000  0.04481860       0.001
   0.02070390  0.00000000  0.04481860       0.006
   0.04140780  0.00000000  0.04481860       0.006
   0.06211170  0.00000000  0.04481860       0.006
   0.08281560  0.00000000  0.04481860       0.006
   0.10351950  0.00000000  0.04481860       0.006
   0.12422340  0.00000000  0.04481860       0.006
   0.02070390  0.02070390  0.04481860       0.006
   0.04140780  0.02070390  0.04481860       0.012
   0.06211170  0.02070390  0.04481860       0.012
   0.08281560  0.02070390  0.04481860       0.012
   0.10351950  0.02070390  0.04481860       0.012
   0.12422340  0.02070390  0.04481860       0.012
   0.04140780  0.04140780  0.04481860       0.006
   0.06211170  0.04140780  0.04481860       0.012
   0.08281560  0.04140780  0.04481860       0.012
   0.10351950  0.04140780  0.04481860       0.012
   0.12422340  0.04140780  0.04481860       0.012
   0.06211170  0.06211170  0.04481860       0.006
   0.08281560  0.06211170  0.04481860       0.012
   0.10351950  0.06211170  0.04481860       0.012
   0.12422340  0.06211170  0.04481860       0.012
   0.08281560  0.08281560  0.04481860       0.006
   0.10351950  0.08281560  0.04481860       0.012
   0.12422340  0.08281560  0.04481860       0.012
   0.10351950  0.10351950  0.04481860       0.006
   0.12422340  0.10351950  0.04481860       0.012
   0.12422340  0.12422340  0.04481860       0.006
 
 k-points in reciprocal lattice and weights: pymatgen with grid density = 8800 / numb
   0.00000000  0.00000000  0.00000000       0.001
   0.07692308  0.00000000  0.00000000       0.006
   0.15384615  0.00000000  0.00000000       0.006
   0.23076923  0.00000000  0.00000000       0.006
   0.30769231  0.00000000  0.00000000       0.006
   0.38461538  0.00000000  0.00000000       0.006
   0.46153846  0.00000000  0.00000000       0.006
   0.07692308  0.07692308  0.00000000       0.006
   0.15384615  0.07692308  0.00000000       0.012
   0.23076923  0.07692308  0.00000000       0.012
   0.30769231  0.07692308  0.00000000       0.012
   0.38461538  0.07692308  0.00000000       0.012
   0.46153846  0.07692308  0.00000000       0.012
   0.15384615  0.15384615  0.00000000       0.006
   0.23076923  0.15384615  0.00000000       0.012
   0.30769231  0.15384615  0.00000000       0.012
   0.38461538  0.15384615  0.00000000       0.012
   0.46153846  0.15384615  0.00000000       0.012
   0.23076923  0.23076923  0.00000000       0.006
   0.30769231  0.23076923  0.00000000       0.012
   0.38461538  0.23076923  0.00000000       0.012
   0.46153846  0.23076923  0.00000000       0.012
   0.30769231  0.30769231  0.00000000       0.006
   0.38461538  0.30769231  0.00000000       0.012
   0.46153846  0.30769231  0.00000000       0.012
   0.38461538  0.38461538  0.00000000       0.006
   0.46153846  0.38461538  0.00000000       0.012
   0.46153846  0.46153846  0.00000000       0.006
   0.00000000  0.00000000  0.25000000       0.003
   0.07692308  0.00000000  0.25000000       0.012
   0.15384615  0.00000000  0.25000000       0.012
   0.23076923  0.00000000  0.25000000       0.012
   0.30769231  0.00000000  0.25000000       0.012
   0.38461538  0.00000000  0.25000000       0.012
   0.46153846  0.00000000  0.25000000       0.012
   0.07692308  0.07692308  0.25000000       0.012
   0.15384615  0.07692308  0.25000000       0.024
   0.23076923  0.07692308  0.25000000       0.024
   0.30769231  0.07692308  0.25000000       0.024
   0.38461538  0.07692308  0.25000000       0.024
   0.46153846  0.07692308  0.25000000       0.024
   0.15384615  0.15384615  0.25000000       0.012
   0.23076923  0.15384615  0.25000000       0.024
   0.30769231  0.15384615  0.25000000       0.024
   0.38461538  0.15384615  0.25000000       0.024
   0.46153846  0.15384615  0.25000000       0.024
   0.23076923  0.23076923  0.25000000       0.012
   0.30769231  0.23076923  0.25000000       0.024
   0.38461538  0.23076923  0.25000000       0.024
   0.46153846  0.23076923  0.25000000       0.024
   0.30769231  0.30769231  0.25000000       0.012
   0.38461538  0.30769231  0.25000000       0.024
   0.46153846  0.30769231  0.25000000       0.024
   0.38461538  0.38461538  0.25000000       0.012
   0.46153846  0.38461538  0.25000000       0.024
   0.46153846  0.46153846  0.25000000       0.012
   0.00000000  0.00000000  0.50000000       0.001
   0.07692308  0.00000000  0.50000000       0.006
   0.15384615  0.00000000  0.50000000       0.006
   0.23076923  0.00000000  0.50000000       0.006
   0.30769231  0.00000000  0.50000000       0.006
   0.38461538  0.00000000  0.50000000       0.006
   0.46153846  0.00000000  0.50000000       0.006
   0.07692308  0.07692308  0.50000000       0.006
   0.15384615  0.07692308  0.50000000       0.012
   0.23076923  0.07692308  0.50000000       0.012
   0.30769231  0.07692308  0.50000000       0.012
   0.38461538  0.07692308  0.50000000       0.012
   0.46153846  0.07692308  0.50000000       0.012
   0.15384615  0.15384615  0.50000000       0.006
   0.23076923  0.15384615  0.50000000       0.012
   0.30769231  0.15384615  0.50000000       0.012
   0.38461538  0.15384615  0.50000000       0.012
   0.46153846  0.15384615  0.50000000       0.012
   0.23076923  0.23076923  0.50000000       0.006
   0.30769231  0.23076923  0.50000000       0.012
   0.38461538  0.23076923  0.50000000       0.012
   0.46153846  0.23076923  0.50000000       0.012
   0.30769231  0.30769231  0.50000000       0.006
   0.38461538  0.30769231  0.50000000       0.012
   0.46153846  0.30769231  0.50000000       0.012
   0.38461538  0.38461538  0.50000000       0.006
   0.46153846  0.38461538  0.50000000       0.012
   0.46153846  0.46153846  0.50000000       0.006
 
 position of ions in fractional coordinates (direct lattice) 
   0.00000000  0.50000000  0.16661671
   0.00000000  0.50000000  0.50000000
   0.00000000  0.50000000  0.83338329
   0.50000000  0.50000000  0.00000000
   0.50000000  0.50000000  0.33319396
   0.50000000  0.50000000  0.66680604
   0.50000000  0.00000000  0.16661671
   0.50000000  0.00000000  0.50000000
   0.50000000  0.00000000  0.83338329
   0.00000000  0.00000000  0.00000000
   0.00000000  0.00000000  0.33328703
   0.00000000  0.00000000  0.66671297
 
 position of ions in cartesian coordinates  (Angst):
   0.00000000  1.85769540  1.85878974
   0.00000000  1.85769540  5.57804126
   0.00000000  1.85769540  9.29729278
   1.85769540  1.85769540  0.00000000
   1.85769540  1.85769540  3.71713932
   1.85769540  1.85769540  7.43894320
   1.85769540  0.00000000  1.85878974
   1.85769540  0.00000000  5.57804126
   1.85769540  0.00000000  9.29729278
   0.00000000  0.00000000  0.00000000
   0.00000000  0.00000000  3.71817763
   0.00000000  0.00000000  7.43790488
 


--------------------------------------------------------------------------------------------------------


 k-point     1 :   0.0000 0.0000 0.0000  plane waves:    4089
 k-point     2 :   0.0769 0.0000 0.0000  plane waves:    4117
 k-point     3 :   0.1538 0.0000 0.0000  plane waves:    4114
 k-point     4 :   0.2308 0.0000 0.0000  plane waves:    4134
 k-point     5 :   0.3077 0.0000 0.0000  plane waves:    4130
 k-point     6 :   0.3846 0.0000 0.0000  plane waves:    4146
 k-point     7 :   0.4615 0.0000 0.0000  plane waves:    4168
 k-point     8 :   0.0769 0.0769 0.0000  plane waves:    4109
 k-point     9 :   0.1538 0.0769 0.0000  plane waves:    4124
 k-point    10 :   0.2308 0.0769 0.0000  plane waves:    4142
 k-point    11 :   0.3077 0.0769 0.0000  plane waves:    4124
 k-point    12 :   0.3846 0.0769 0.0000  plane waves:    4137
 k-point    13 :   0.4615 0.0769 0.0000  plane waves:    4148
 k-point    14 :   0.1538 0.1538 0.0000  plane waves:    4120
 k-point    15 :   0.2308 0.1538 0.0000  plane waves:    4145
 k-point    16 :   0.3077 0.1538 0.0000  plane waves:    4149
 k-point    17 :   0.3846 0.1538 0.0000  plane waves:    4153
 k-point    18 :   0.4615 0.1538 0.0000  plane waves:    4155
 k-point    19 :   0.2308 0.2308 0.0000  plane waves:    4152
 k-point    20 :   0.3077 0.2308 0.0000  plane waves:    4162
 k-point    21 :   0.3846 0.2308 0.0000  plane waves:    4151
 k-point    22 :   0.4615 0.2308 0.0000  plane waves:    4148
 k-point    23 :   0.3077 0.3077 0.0000  plane waves:    4172
 k-point    24 :   0.3846 0.3077 0.0000  plane waves:    4165
 k-point    25 :   0.4615 0.3077 0.0000  plane waves:    4171
 k-point    26 :   0.3846 0.3846 0.0000  plane waves:    4162
 k-point    27 :   0.4615 0.3846 0.0000  plane waves:    4167
 k-point    28 :   0.4615 0.4615 0.0000  plane waves:    4146
 k-point    29 :   0.0000 0.0000 0.2500  plane waves:    4145
 k-point    30 :   0.0769 0.0000 0.2500  plane waves:    4129
 k-point    31 :   0.1538 0.0000 0.2500  plane waves:    4129
 k-point    32 :   0.2308 0.0000 0.2500  plane waves:    4129
 k-point    33 :   0.3077 0.0000 0.2500  plane waves:    4143
 k-point    34 :   0.3846 0.0000 0.2500  plane waves:    4134
 k-point    35 :   0.4615 0.0000 0.2500  plane waves:    4148
 k-point    36 :   0.0769 0.0769 0.2500  plane waves:    4127
 k-point    37 :   0.1538 0.0769 0.2500  plane waves:    4126
 k-point    38 :   0.2308 0.0769 0.2500  plane waves:    4135
 k-point    39 :   0.3077 0.0769 0.2500  plane waves:    4126
 k-point    40 :   0.3846 0.0769 0.2500  plane waves:    4140
 k-point    41 :   0.4615 0.0769 0.2500  plane waves:    4153
 k-point    42 :   0.1538 0.1538 0.2500  plane waves:    4132
 k-point    43 :   0.2308 0.1538 0.2500  plane waves:    4139
 k-point    44 :   0.3077 0.1538 0.2500  plane waves:    4144
 k-point    45 :   0.3846 0.1538 0.2500  plane waves:    4147
 k-point    46 :   0.4615 0.1538 0.2500  plane waves:    4157
 k-point    47 :   0.2308 0.2308 0.2500  plane waves:    4153
 k-point    48 :   0.3077 0.2308 0.2500  plane waves:    4153
 k-point    49 :   0.3846 0.2308 0.2500  plane waves:    4164
 k-point    50 :   0.4615 0.2308 0.2500  plane waves:    4154
 k-point    51 :   0.3077 0.3077 0.2500  plane waves:    4167
 k-point    52 :   0.3846 0.3077 0.2500  plane waves:    4158
 k-point    53 :   0.4615 0.3077 0.2500  plane waves:    4160
 k-point    54 :   0.3846 0.3846 0.2500  plane waves:    4164
 k-point    55 :   0.4615 0.3846 0.2500  plane waves:    4161
 k-point    56 :   0.4615 0.4615 0.2500  plane waves:    4154
 k-point    57 :   0.0000 0.0000 0.5000  plane waves:    4138
 k-point    58 :   0.0769 0.0000 0.5000  plane waves:    4140
 k-point    59 :   0.1538 0.0000 0.5000  plane waves:    4134
 k-point    60 :   0.2308 0.0000 0.5000  plane waves:    4142
 k-point    61 :   0.3077 0.0000 0.5000  plane waves:    4136
 k-point    62 :   0.3846 0.0000 0.5000  plane waves:    4132
 k-point    63 :   0.4615 0.0000 0.5000  plane waves:    4138
 k-point    64 :   0.0769 0.0769 0.5000  plane waves:    4146
 k-point    65 :   0.1538 0.0769 0.5000  plane waves:    4126
 k-point    66 :   0.2308 0.0769 0.5000  plane waves:    4134
 k-point    67 :   0.3077 0.0769 0.5000  plane waves:    4134
 k-point    68 :   0.3846 0.0769 0.5000  plane waves:    4136
 k-point    69 :   0.4615 0.0769 0.5000  plane waves:    4154
 k-point    70 :   0.1538 0.1538 0.5000  plane waves:    4138
 k-point    71 :   0.2308 0.1538 0.5000  plane waves:    4136
 k-point    72 :   0.3077 0.1538 0.5000  plane waves:    4136
 k-point    73 :   0.3846 0.1538 0.5000  plane waves:    4154
 k-point    74 :   0.4615 0.1538 0.5000  plane waves:    4158
 k-point    75 :   0.2308 0.2308 0.5000  plane waves:    4132
 k-point    76 :   0.3077 0.2308 0.5000  plane waves:    4156
 k-point    77 :   0.3846 0.2308 0.5000  plane waves:    4162
 k-point    78 :   0.4615 0.2308 0.5000  plane waves:    4156
 k-point    79 :   0.3077 0.3077 0.5000  plane waves:    4162
 k-point    80 :   0.3846 0.3077 0.5000  plane waves:    4172
 k-point    81 :   0.4615 0.3077 0.5000  plane waves:    4160
 k-point    82 :   0.3846 0.3846 0.5000  plane waves:    4158
 k-point    83 :   0.4615 0.3846 0.5000  plane waves:    4168
 k-point    84 :   0.4615 0.4615 0.5000  plane waves:    4158

 maximum and minimum number of plane-waves per node :      4172     4089

 maximum number of plane-waves:      4172
 maximum index in each direction: 
   IXMAX=    6   IYMAX=    6   IZMAX=   20
   IXMIN=   -7   IYMIN=   -7   IZMIN=  -21


 serial   3D FFT for wavefunctions
 parallel 3D FFT for charge:
    minimum data exchange during FFTs selected (reduces bandwidth)


 total amount of memory used by VASP MPI-rank0   282731. kBytes
=======================================================================

   base      :      30000. kBytes
   nonl-proj :     102217. kBytes
   fftplans  :        888. kBytes
   grid      :       6813. kBytes
   one-center:        373. kBytes
   wavefun   :     142440. kBytes
 
     INWAV:  cpu time      0.0001: real time      0.0001
 Broyden mixing: mesh for mixing (old mesh)
   NGX = 13   NGY = 13   NGZ = 41
  (NGX  = 56   NGY  = 56   NGZ  =168)
  gives a total of   6929 points

 initial charge density was supplied:
 charge density of overlapping atoms calculated
 number of electron     156.0000000 magnetization      25.5160000
 charge density for first step will be calculated from the start-wavefunctions


--------------------------------------------------------------------------------------------------------


 Maximum index for augmentation-charges         1041 (set IRDMAX)


--------------------------------------------------------------------------------------------------------


 First call to EWALD:  gamma=   0.331
 Maximum number of real-space cells 4x 4x 2
 Maximum number of reciprocal cells 2x 2x 5

    FEWALD:  cpu time      0.0019: real time      0.0019


--------------------------------------- Ionic step        1  -------------------------------------------




--------------------------------------- Iteration      1(   1)  ---------------------------------------


    POTLOK:  cpu time      0.0296: real time      0.0302
    SETDIJ:  cpu time      0.0176: real time      0.0180
    TRIAL :  cpu time      5.9102: real time      5.9557
    CORREC:  cpu time      0.0026: real time      0.0026
    --------------------------------------------
      LOOP:  cpu time      6.0813: real time      6.1310

 eigenvalue-minimisations  : 43072
 total energy-change (2. order) : 0.1770386E+04  (-0.9162984E+04)
 number of electron     156.0000000 magnetization      25.5160000
 augmentation part      156.0000000 magnetization      25.5160000

 Free energy of the ion-electron system (eV)
  ---------------------------------------------------
  alpha Z        PSCENC =      1105.13071145
  Ewald energy   TEWEN  =    -18170.29209562
  -Hartree energ DENC   =     -5952.33336200
  -exchange      EXHF   =         0.00000000
  -V(xc)+E(xc)   XCENC  =       657.98295396
  PAW double counting   =     20093.78624911   -20817.69637441
  entropy T*S    EENTRO =        -0.00483869
  eigenvalues    EBANDS =       549.70938289
  atomic energy  EATOM  =     24304.10294433
  ---------------------------------------------------
  free energy    TOTEN  =      1770.38557101 eV

  energy without entropy =     1770.39040970  energy(sigma->0) =     1770.38718391


--------------------------------------------------------------------------------------------------------




--------------------------------------- Iteration      1(   2)  ---------------------------------------


    TRIAL :  cpu time      5.8186: real time      5.8600
    CORREC:  cpu time      0.0027: real time      0.0027
    --------------------------------------------
      LOOP:  cpu time      5.8368: real time      5.8838

 eigenvalue-minimisations  : 43008
 total energy-change (2. order) :-0.1763828E+04  (-0.1671331E+04)
 number of electron     156.0000000 magnetization      25.5160000
 augmentation part      156.0000000 magnetization      25.5160000

 Free energy of the ion-electron system (eV)
  ---------------------------------------------------
  alpha Z        PSCENC =      1105.13071145
  Ewald energy   TEWEN  =    -18170.29209562
  -Hartree energ DENC   =     -5952.33336200
  -exchange      EXHF   =         0.00000000
  -V(xc)+E(xc)   XCENC  =       657.98295396
  PAW double counting   =     20093.78624911   -20817.69637441
  entropy T*S    EENTRO =        -0.00159836
  eigenvalues    EBANDS =     -1214.12197009
  atomic energy  EATOM  =     24304.10294433
  ---------------------------------------------------
  free energy    TOTEN  =         6.55745837 eV

  energy without entropy =        6.55905673  energy(sigma->0) =        6.55799115


--------------------------------------------------------------------------------------------------------




--------------------------------------- Iteration      1(   3)  ---------------------------------------


    TRIAL :  cpu time      7.0041: real time      7.0523
    CORREC:  cpu time      0.0025: real time      0.0025
    --------------------------------------------
      LOOP:  cpu time      7.0240: real time      7.0767

 eigenvalue-minimisations  : 50720
 total energy-change (2. order) :-0.1091446E+03  (-0.1074842E+03)
 number of electron     156.0000000 magnetization      25.5160000
 augmentation part      156.0000000 magnetization      25.5160000

 Free energy of the ion-electron system (eV)
  ---------------------------------------------------
  alpha Z        PSCENC =      1105.13071145
  Ewald energy   TEWEN  =    -18170.29209562
  -Hartree energ DENC   =     -5952.33336200
  -exchange      EXHF   =         0.00000000
  -V(xc)+E(xc)   XCENC  =       657.98295396
  PAW double counting   =     20093.78624911   -20817.69637441
  entropy T*S    EENTRO =        -0.01717377
  eigenvalues    EBANDS =     -1323.25099437
  atomic energy  EATOM  =     24304.10294433
  ---------------------------------------------------
  free energy    TOTEN  =      -102.58714133 eV

  energy without entropy =     -102.56996756  energy(sigma->0) =     -102.58141674


--------------------------------------------------------------------------------------------------------




--------------------------------------- Iteration      1(   4)  ---------------------------------------


    TRIAL :  cpu time      9.9058: real time      9.9703
    CORREC:  cpu time      0.0490: real time      0.0492
    --------------------------------------------
      LOOP:  cpu time      9.9716: real time     10.0414

 eigenvalue-minimisations  : 45664
 total energy-change (2. order) :-0.1578561E+01  (-0.1578195E+01)
 number of electron     156.0000000 magnetization      25.5160000
 augmentation part      156.0000000 magnetization      25.5160000

 Free energy of the ion-electron system (eV)
  ---------------------------------------------------
  alpha Z        PSCENC =      1105.13071145
  Ewald energy   TEWEN  =    -18170.29209562
  -Hartree energ DENC   =     -5952.33336200
  -exchange      EXHF   =         0.00000000
  -V(xc)+E(xc)   XCENC  =       657.98295396
  PAW double counting   =     20093.78624911   -20817.69637441
  entropy T*S    EENTRO =        -0.01728239
  eigenvalues    EBANDS =     -1324.82944648
  atomic energy  EATOM  =     24304.10294433
  ---------------------------------------------------
  free energy    TOTEN  =      -104.16570207 eV

  energy without entropy =     -104.14841967  energy(sigma->0) =     -104.15994127


--------------------------------------------------------------------------------------------------------




--------------------------------------- Iteration      1(   5)  ---------------------------------------


    TRIAL :  cpu time      7.6331: real time      7.6836
    CORREC:  cpu time      0.0024: real time      0.0025
    CHARGE:  cpu time      0.1778: real time      0.1793
    --------------------------------------------
      LOOP:  cpu time      7.8548: real time      7.9115

 eigenvalue-minimisations  : 53024
 total energy-change (2. order) :-0.3010478E-01  (-0.3010381E-01)
 number of electron     156.0000344 magnetization      21.4056426
 augmentation part       79.4081294 magnetization      15.2334176

 Free energy of the ion-electron system (eV)
  ---------------------------------------------------
  alpha Z        PSCENC =      1105.13071145
  Ewald energy   TEWEN  =    -18170.29209562
  -Hartree energ DENC   =     -5952.33336200
  -exchange      EXHF   =         0.00000000
  -V(xc)+E(xc)   XCENC  =       657.98295396
  PAW double counting   =     20093.78624911   -20817.69637441
  entropy T*S    EENTRO =        -0.01728281
  eigenvalues    EBANDS =     -1324.85955085
  atomic energy  EATOM  =     24304.10294433
  ---------------------------------------------------
  free energy    TOTEN  =      -104.19580685 eV

  energy without entropy =     -104.17852404  energy(sigma->0) =     -104.19004591


--------------------------------------------------------------------------------------------------------




--------------------------------------- Iteration      1(   6)  ---------------------------------------


    POTLOK:  cpu time      0.0222: real time      0.0224
    SETDIJ:  cpu time      0.0084: real time      0.0085
    TRIAL :  cpu time      2.7414: real time      2.7675
    CORREC:  cpu time      1.1197: real time      1.1310
    CHARGE:  cpu time      0.1666: real time      0.1675
    --------------------------------------------
      LOOP:  cpu time      4.0747: real time      4.1190

 eigenvalue-minimisations  :     0
 total energy-change (2. order) : 0.4644648E+02  (-0.2921599E+02)
 number of electron     156.0000361 magnetization      22.5958252
 augmentation part       83.5672912 magnetization      16.6613874

 Free energy of the ion-electron system (eV)
  ---------------------------------------------------
  alpha Z        PSCENC =      1105.13071145
  Ewald energy   TEWEN  =    -18170.29209562
  -Hartree energ DENC   =     -4858.34872584
  -exchange      EXHF   =         0.00000000
  -V(xc)+E(xc)   XCENC  =       612.15609472
  PAW double counting   =     21244.47600461   -21912.85701718
  entropy T*S    EENTRO =         0.00965889
  eigenvalues    EBANDS =     -2382.09996529
  atomic energy  EATOM  =     24304.10294433
  ---------------------------------------------------
  free energy    TOTEN  =       -57.74933164 eV

  energy without entropy =      -57.75899053  energy(sigma->0) =      -57.75255127


--------------------------------------------------------------------------------------------------------




--------------------------------------- Iteration      1(   7)  ---------------------------------------


    POTLOK:  cpu time      0.0216: real time      0.0218
    SETDIJ:  cpu time      0.0075: real time      0.0076
    TRIAL :  cpu time      2.8090: real time      2.8355
    CORREC:  cpu time      1.1162: real time      1.1282
    CHARGE:  cpu time      0.1642: real time      0.1651
    --------------------------------------------
      LOOP:  cpu time      4.1367: real time      4.1811

 eigenvalue-minimisations  :     0
 total energy-change (2. order) :-0.2939493E+02  (-0.2518687E+01)
 number of electron     156.0000362 magnetization      23.1690039
 augmentation part       84.1630930 magnetization      17.1966956

 Free energy of the ion-electron system (eV)
  ---------------------------------------------------
  alpha Z        PSCENC =      1105.13071145
  Ewald energy   TEWEN  =    -18170.29209562
  -Hartree energ DENC   =     -5446.10823554
  -exchange      EXHF   =         0.00000000
  -V(xc)+E(xc)   XCENC  =       636.71037204
  PAW double counting   =     22068.97160200   -22848.81076866
  entropy T*S    EENTRO =         0.01496650
  eigenvalues    EBANDS =     -1736.85844936
  atomic energy  EATOM  =     24304.10294433
  ---------------------------------------------------
  free energy    TOTEN  =       -87.14426047 eV

  energy without entropy =      -87.15922697  energy(sigma->0) =      -87.14924931


--------------------------------------------------------------------------------------------------------




--------------------------------------- Iteration      1(   8)  ---------------------------------------


    POTLOK:  cpu time      0.0215: real time      0.0217
    SETDIJ:  cpu time      0.0075: real time      0.0075
    TRIAL :  cpu time      2.7577: real time      2.7855
    CORREC:  cpu time      1.0985: real time      1.1105
    CHARGE:  cpu time      0.1617: real time      0.1625
    --------------------------------------------
      LOOP:  cpu time      4.0668: real time      4.1119

 eigenvalue-minimisations  :     0
 total energy-change (2. order) :-0.2500901E+01  (-0.1259095E+01)
 number of electron     156.0000362 magnetization      23.4907653
 augmentation part       84.4649810 magnetization      17.4979085

 Free energy of the ion-electron system (eV)
  ---------------------------------------------------
  alpha Z        PSCENC =      1105.13071145
  Ewald energy   TEWEN  =    -18170.29209562
  -Hartree energ DENC   =     -5516.93109543
  -exchange      EXHF   =         0.00000000
  -V(xc)+E(xc)   XCENC  =       640.14539771
  PAW double counting   =     22211.21426079   -22990.58535072
  entropy T*S    EENTRO =         0.02050610
  eigenvalues    EBANDS =     -1672.44490032
  atomic energy  EATOM  =     24304.10294433
  ---------------------------------------------------
  free energy    TOTEN  =       -89.64516132 eV

  energy without entropy =      -89.66566742  energy(sigma->0) =      -89.65199668


--------------------------------------------------------------------------------------------------------




--------------------------------------- Iteration      1(   9)  ---------------------------------------


    POTLOK:  cpu time      0.0216: real time      0.0219
    SETDIJ:  cpu time      0.0078: real time      0.0079
    TRIAL :  cpu time      2.7888: real time      2.8165
    CORREC:  cpu time      1.1706: real time      1.1823
    CHARGE:  cpu time      0.1615: real time      0.1623
    --------------------------------------------
      LOOP:  cpu time      4.1682: real time      4.2140

 eigenvalue-minimisations  :     0
 total energy-change (2. order) :-0.1767428E+01  (-0.3790631E+00)
 number of electron     156.0000362 magnetization      23.5919365
 augmentation part       84.5247042 magnetization      17.5880082

 Free energy of the ion-electron system (eV)
  ---------------------------------------------------
  alpha Z        PSCENC =      1105.13071145
  Ewald energy   TEWEN  =    -18170.29209562
  -Hartree energ DENC   =     -5550.68662573
  -exchange      EXHF   =         0.00000000
  -V(xc)+E(xc)   XCENC  =       641.89307354
  PAW double counting   =     22297.50760834   -23075.31188647
  entropy T*S    EENTRO =         0.02260246
  eigenvalues    EBANDS =     -1643.77682569
  atomic energy  EATOM  =     24304.10294433
  ---------------------------------------------------
  free energy    TOTEN  =       -91.41258976 eV

  energy without entropy =      -91.43519222  energy(sigma->0) =      -91.42012391


--------------------------------------------------------------------------------------------------------




--------------------------------------- Iteration      1(  10)  ---------------------------------------


    POTLOK:  cpu time      0.0214: real time      0.0217
    SETDIJ:  cpu time      0.0074: real time      0.0075
    TRIAL :  cpu time      2.8495: real time      2.8782
    CORREC:  cpu time      1.1149: real time      1.1264
    CHARGE:  cpu time      0.1565: real time      0.1574
    --------------------------------------------
      LOOP:  cpu time      4.1722: real time      4.2139

 eigenvalue-minimisations  :     0
 total energy-change (2. order) :-0.3608080E+00  (-0.1081791E+01)
 number of electron     156.0000361 magnetization      24.2583249
 augmentation part       84.7469179 magnetization      18.1718671

 Free energy of the ion-electron system (eV)
  ---------------------------------------------------
  alpha Z        PSCENC =      1105.13071145
  Ewald energy   TEWEN  =    -18170.29209562
  -Hartree energ DENC   =     -5556.88556263
  -exchange      EXHF   =         0.00000000
  -V(xc)+E(xc)   XCENC  =       642.24655691
  PAW double counting   =     22311.55974456   -23087.83359109
  entropy T*S    EENTRO =         0.03069547
  eigenvalues    EBANDS =     -1639.82470815
  atomic energy  EATOM  =     24304.10294433
  ---------------------------------------------------
  free energy    TOTEN  =       -91.77339776 eV

  energy without entropy =      -91.80409324  energy(sigma->0) =      -91.78362959


--------------------------------------------------------------------------------------------------------




--------------------------------------- Iteration      1(  11)  ---------------------------------------


    POTLOK:  cpu time      0.0214: real time      0.0216
    SETDIJ:  cpu time      0.0076: real time      0.0076
    TRIAL :  cpu time      2.7688: real time      2.7956
    CORREC:  cpu time      1.1039: real time      1.1159
    CHARGE:  cpu time      0.1574: real time      0.1583
    --------------------------------------------
      LOOP:  cpu time      4.0764: real time      4.1227

 eigenvalue-minimisations  :     0
 total energy-change (2. order) :-0.1082650E+01  (-0.1597081E+00)
 number of electron     156.0000361 magnetization      24.3336035
 augmentation part       84.8164809 magnetization      18.2503796

 Free energy of the ion-electron system (eV)
  ---------------------------------------------------
  alpha Z        PSCENC =      1105.13071145
  Ewald energy   TEWEN  =    -18170.29209562
  -Hartree energ DENC   =     -5579.03130660
  -exchange      EXHF   =         0.00000000
  -V(xc)+E(xc)   XCENC  =       643.65724985
  PAW double counting   =     22322.79904991   -23082.05330304
  entropy T*S    EENTRO =         0.03148710
  eigenvalues    EBANDS =     -1637.19999399
  atomic energy  EATOM  =     24304.10294433
  ---------------------------------------------------
  free energy    TOTEN  =       -92.85604826 eV

  energy without entropy =      -92.88753535  energy(sigma->0) =      -92.86654396


--------------------------------------------------------------------------------------------------------




--------------------------------------- Iteration      1(  12)  ---------------------------------------


    POTLOK:  cpu time      0.0214: real time      0.0216
    SETDIJ:  cpu time      0.0075: real time      0.0076
    TRIAL :  cpu time      2.8385: real time      2.8658
    CORREC:  cpu time      1.1063: real time      1.1181
    CHARGE:  cpu time      0.1557: real time      0.1568
    --------------------------------------------
      LOOP:  cpu time      4.1455: real time      4.1923

 eigenvalue-minimisations  :     0
 total energy-change (2. order) :-0.1625425E+00  (-0.2646421E+00)
 number of electron     156.0000362 magnetization      24.4422136
 augmentation part       85.0057994 magnetization      18.3861308

 Free energy of the ion-electron system (eV)
  ---------------------------------------------------
  alpha Z        PSCENC =      1105.13071145
  Ewald energy   TEWEN  =    -18170.29209562
  -Hartree energ DENC   =     -5589.68323356
  -exchange      EXHF   =         0.00000000
  -V(xc)+E(xc)   XCENC  =       644.12207626
  PAW double counting   =     22332.11599615   -23090.53915626
  entropy T*S    EENTRO =         0.02805021
  eigenvalues    EBANDS =     -1628.00732062
  atomic energy  EATOM  =     24304.10294433
  ---------------------------------------------------
  free energy    TOTEN  =       -93.01859079 eV

  energy without entropy =      -93.04664100  energy(sigma->0) =      -93.02794086


--------------------------------------------------------------------------------------------------------




--------------------------------------- Iteration      1(  13)  ---------------------------------------


    POTLOK:  cpu time      0.0215: real time      0.0220
    SETDIJ:  cpu time      0.0075: real time      0.0075
    TRIAL :  cpu time      2.7658: real time      2.7923
    CORREC:  cpu time      1.1101: real time      1.1214
    CHARGE:  cpu time      0.1555: real time      0.1565
    --------------------------------------------
      LOOP:  cpu time      4.0781: real time      4.1235

 eigenvalue-minimisations  :     0
 total energy-change (2. order) :-0.2626115E+00  (-0.8674599E-01)
 number of electron     156.0000362 magnetization      24.5068107
 augmentation part       85.0570051 magnetization      18.4552696

 Free energy of the ion-electron system (eV)
  ---------------------------------------------------
  alpha Z        PSCENC =      1105.13071145
  Ewald energy   TEWEN  =    -18170.29209562
  -Hartree energ DENC   =     -5622.07186229
  -exchange      EXHF   =         0.00000000
  -V(xc)+E(xc)   XCENC  =       645.42411116
  PAW double counting   =     22359.32934717   -23119.73150505
  entropy T*S    EENTRO =         0.02379220
  eigenvalues    EBANDS =     -1595.20090362
  atomic energy  EATOM  =     24304.10294433
  ---------------------------------------------------
  free energy    TOTEN  =       -93.28120227 eV

  energy without entropy =      -93.30499446  energy(sigma->0) =      -93.28913300


--------------------------------------------------------------------------------------------------------




--------------------------------------- Iteration      1(  14)  ---------------------------------------


    POTLOK:  cpu time      0.0213: real time      0.0215
    SETDIJ:  cpu time      0.0080: real time      0.0080
    TRIAL :  cpu time      2.7798: real time      2.8066
    CORREC:  cpu time      1.1060: real time      1.1174
    CHARGE:  cpu time      0.1532: real time      0.1542
    --------------------------------------------
      LOOP:  cpu time      4.0865: real time      4.1313

 eigenvalue-minimisations  :     0
 total energy-change (2. order) :-0.8618868E-01  (-0.2391337E-01)
 number of electron     156.0000361 magnetization      24.5458296
 augmentation part       85.0524782 magnetization      18.4901953

 Free energy of the ion-electron system (eV)
  ---------------------------------------------------
  alpha Z        PSCENC =      1105.13071145
  Ewald energy   TEWEN  =    -18170.29209562
  -Hartree energ DENC   =     -5630.42770268
  -exchange      EXHF   =         0.00000000
  -V(xc)+E(xc)   XCENC  =       645.78910747
  PAW double counting   =     22355.53205173   -23116.94895803
  entropy T*S    EENTRO =         0.02173660
  eigenvalues    EBANDS =     -1586.27724178
  atomic energy  EATOM  =     24304.10294433
  ---------------------------------------------------
  free energy    TOTEN  =       -93.36739094 eV

  energy without entropy =      -93.38912754  energy(sigma->0) =      -93.37463647


--------------------------------------------------------------------------------------------------------




--------------------------------------- Iteration      1(  15)  ---------------------------------------


    POTLOK:  cpu time      0.0212: real time      0.0214
    SETDIJ:  cpu time      0.0077: real time      0.0077
    TRIAL :  cpu time      2.7765: real time      2.8033
    CORREC:  cpu time      1.1091: real time      1.1208
    CHARGE:  cpu time      0.1543: real time      0.1552
    --------------------------------------------
      LOOP:  cpu time      4.0873: real time      4.1313

 eigenvalue-minimisations  :     0
 total energy-change (2. order) :-0.2329475E-01  (-0.5233135E-01)
 number of electron     156.0000361 magnetization      24.6913951
 augmentation part       84.9911230 magnetization      18.6150345

 Free energy of the ion-electron system (eV)
  ---------------------------------------------------
  alpha Z        PSCENC =      1105.13071145
  Ewald energy   TEWEN  =    -18170.29209562
  -Hartree energ DENC   =     -5628.89353366
  -exchange      EXHF   =         0.00000000
  -V(xc)+E(xc)   XCENC  =       645.76543525
  PAW double counting   =     22345.16905026   -23106.54432477
  entropy T*S    EENTRO =         0.01535298
  eigenvalues    EBANDS =     -1587.85060952
  atomic energy  EATOM  =     24304.10294433
  ---------------------------------------------------
  free energy    TOTEN  =       -93.39068569 eV

  energy without entropy =      -93.40603867  energy(sigma->0) =      -93.39580335


--------------------------------------------------------------------------------------------------------




--------------------------------------- Iteration      1(  16)  ---------------------------------------


    POTLOK:  cpu time      0.0214: real time      0.0216
    SETDIJ:  cpu time      0.0073: real time      0.0074
    TRIAL :  cpu time      2.7585: real time      2.7857
    CORREC:  cpu time      1.1720: real time      1.1842
    CHARGE:  cpu time      0.1562: real time      0.1571
    --------------------------------------------
      LOOP:  cpu time      4.1322: real time      4.1788

 eigenvalue-minimisations  :     0
 total energy-change (2. order) :-0.5231088E-01  (-0.1427361E-01)
 number of electron     156.0000361 magnetization      24.7544500
 augmentation part       84.9817354 magnetization      18.6839891

 Free energy of the ion-electron system (eV)
  ---------------------------------------------------
  alpha Z        PSCENC =      1105.13071145
  Ewald energy   TEWEN  =    -18170.29209562
  -Hartree energ DENC   =     -5614.75574160
  -exchange      EXHF   =         0.00000000
  -V(xc)+E(xc)   XCENC  =       645.37410633
  PAW double counting   =     22298.94442476   -23059.30667320
  entropy T*S    EENTRO =         0.01300652
  eigenvalues    EBANDS =     -1602.65602600
  atomic energy  EATOM  =     24304.10294433
  ---------------------------------------------------
  free energy    TOTEN  =       -93.44299657 eV

  energy without entropy =      -93.45600309  energy(sigma->0) =      -93.44733208


--------------------------------------------------------------------------------------------------------




--------------------------------------- Iteration      1(  17)  ---------------------------------------


    POTLOK:  cpu time      0.0217: real time      0.0219
    SETDIJ:  cpu time      0.0082: real time      0.0083
    TRIAL :  cpu time      2.7175: real time      2.7428
    CORREC:  cpu time      1.1159: real time      1.1274
    CHARGE:  cpu time      0.1546: real time      0.1555
    --------------------------------------------
      LOOP:  cpu time      4.0343: real time      4.0790

 eigenvalue-minimisations  :     0
 total energy-change (2. order) :-0.1423569E-01  (-0.7155098E-02)
 number of electron     156.0000361 magnetization      24.7952185
[...]
     78      11.2172     -0.00000
     79      11.2181     -0.00000
     80      11.2413     -0.00000
     81      11.2436     -0.00000
     82      11.4526     -0.00000
     83      11.4544     -0.00000
     84      11.7088     -0.00000
     85      11.7487     -0.00000
     86      11.8589     -0.00000
     87      11.8711     -0.00000
     88      11.9254     -0.00000
     89      11.9736     -0.00000
     90      12.0253     -0.00000
     91      12.0272     -0.00000
     92      12.4653     -0.00000
     93      12.4658     -0.00000
     94      12.8888     -0.00000
     95      12.8899     -0.00000
     96      12.9132     -0.00000
     97      12.9134     -0.00000
     98      13.4024     -0.00000
     99      13.4033     -0.00000
    100      15.8380      0.00000
    101      17.7103      0.00000
    102      17.7774      0.00000
    103      17.8228      0.00000
    104      18.6703      0.00000
    105      18.6714      0.00000
    106      19.3507      0.00000
    107      19.3543      0.00000
    108      19.8996      0.00000
    109      19.9034      0.00000
    110      20.4014      0.00000
    111      20.4027      0.00000
    112      24.7880      0.00000
    113      24.7888      0.00000
    114      25.2643      0.00000
    115      25.2681      0.00000
    116      25.6100      0.00000
    117      25.6130      0.00000
    118      26.4893      0.00000
    119      26.4911      0.00000
    120      27.4882      0.00000
    121      27.4939      0.00000
    122      27.5429      0.00000
    123      27.9471      0.00000
    124      28.9772      0.00000
    125      28.9780      0.00000
    126      29.3977      0.00000
    127      29.3978      0.00000
    128      30.0618      0.00000


--------------------------------------------------------------------------------------------------------


 soft charge-density along one line, spin component           1
         0         1         2         3         4         5         6         7         8         9
 total charge-density along one line
 
 soft charge-density along one line, spin component           2
         0         1         2         3         4         5         6         7         8         9
 total charge-density along one line
 
 pseudopotential strength for first ion, spin component:           1
-44.996  -0.000  -0.000   7.624   0.000   0.000  -0.000   0.000
 -0.000 -44.995  -0.000   0.000   7.624   0.000   0.000   0.000
 -0.000  -0.000 -44.890   0.000   0.000   7.581   0.000   0.000
  7.624   0.000   0.000   5.631   0.000   0.000   0.000  -0.000
  0.000   7.624   0.000   0.000   5.631   0.000  -0.000  -0.000
  0.000   0.000   7.581   0.000   0.000   5.639  -0.000  -0.000
 -0.000   0.000   0.000   0.000  -0.000  -0.000  -2.066  -0.000
  0.000   0.000   0.000  -0.000  -0.000  -0.000  -0.000  -2.146
 -0.000   0.000   0.000   0.000  -0.000  -0.000   0.000  -0.000
  0.000  -0.000   0.000  -0.000   0.000  -0.000  -0.000  -0.000
 -0.000  -0.000  -0.000   0.000   0.000  -0.000   0.000   0.000
 -0.000   0.000   0.000   0.000  -0.000  -0.000  -2.579  -0.000
  0.000   0.000   0.000  -0.000  -0.000  -0.000  -0.000  -2.658
 -0.000   0.000   0.000   0.000  -0.000  -0.000   0.000  -0.000
  0.000   0.000   0.000  -0.000  -0.000  -0.000  -0.000  -0.000
 -0.000  -0.000  -0.000   0.000   0.000  -0.000   0.000   0.000
 -0.000  -0.000  -0.000  -0.000  -0.000  -0.000   0.000   0.000
 -0.000  -0.000   0.000  -0.000  -0.000   0.000   0.000   0.000
 pseudopotential strength for first ion, spin component:           2
-42.653  -0.000  -0.000   6.638   0.000   0.000  -0.000   0.000
 -0.000 -42.653  -0.000   0.000   6.638   0.000  -0.000   0.000
 -0.000  -0.000 -42.609   0.000   0.000   6.619   0.000  -0.000
  6.638   0.000   0.000   5.907   0.000  -0.000  -0.000  -0.000
  0.000   6.638   0.000   0.000   5.907   0.000   0.000  -0.000
  0.000   0.000   6.619  -0.000   0.000   5.911  -0.000   0.000
 -0.000  -0.000   0.000  -0.000   0.000  -0.000  -0.213  -0.000
  0.000   0.000  -0.000  -0.000  -0.000   0.000  -0.000  -0.235
 -0.000   0.000  -0.000   0.000  -0.000  -0.000   0.000  -0.000
 -0.000   0.000   0.000   0.000  -0.000  -0.000  -0.000   0.000
 -0.000  -0.000   0.000   0.000  -0.000  -0.000  -0.000   0.000
 -0.000  -0.000   0.000  -0.000   0.000  -0.000  -0.758  -0.000
  0.000   0.000  -0.000  -0.000  -0.000   0.000  -0.000  -0.779
 -0.000   0.000  -0.000   0.000  -0.000  -0.000   0.000  -0.000
 -0.000   0.000   0.000   0.000  -0.000  -0.000  -0.000   0.000
 -0.000  -0.000   0.000   0.000  -0.000  -0.000  -0.000   0.000
 -0.000  -0.000  -0.000  -0.000  -0.000  -0.000   0.000   0.000
 -0.000  -0.000  -0.000  -0.000  -0.000  -0.000   0.000   0.000
 total augmentation occupancy for first ion, spin component:           1
  1.992   0.000   0.000  -0.026   0.000   0.000  -0.000   0.000  -0.000   0.000   0.000   0.000  -0.000  -0.000   0.000  -0.000
  0.000   1.992   0.000  -0.000  -0.026   0.000   0.000  -0.000   0.000   0.000  -0.000   0.000   0.000  -0.000  -0.000   0.000
  0.000   0.000   1.992  -0.000   0.000  -0.026   0.000  -0.000  -0.000   0.000  -0.000   0.000   0.000   0.000  -0.000   0.000
 -0.026  -0.000  -0.000   0.185  -0.000  -0.000  -0.000  -0.000   0.000   0.000   0.000   0.000   0.000   0.000   0.000  -0.000
  0.000  -0.026   0.000  -0.000   0.185   0.000  -0.000   0.000  -0.000  -0.000   0.000   0.000  -0.000   0.000  -0.000   0.000
  0.000   0.000  -0.026  -0.000   0.000   0.165   0.000   0.000  -0.000  -0.000   0.000  -0.000   0.000   0.000   0.000   0.000
 -0.000   0.000   0.000  -0.000  -0.000   0.000   3.007   0.000   0.000   0.000   0.000  -1.714   0.000   0.000   0.000   0.000
  0.000  -0.000  -0.000  -0.000   0.000   0.000   0.000   3.362   0.000  -0.000   0.000   0.000  -2.301   0.000   0.000   0.000
 -0.000   0.000  -0.000   0.000  -0.000  -0.000   0.000   0.000   3.438   0.000   0.168  -0.000   0.000  -2.033   0.000  -0.092
  0.000   0.000   0.000   0.000  -0.000  -0.000   0.000  -0.000   0.000   3.010   0.000   0.000   0.000   0.000  -1.716  -0.000
  0.000  -0.000  -0.000   0.000   0.000   0.000   0.000   0.000   0.168   0.000   3.241   0.000   0.000  -0.092   0.000  -1.925
  0.000   0.000   0.000   0.000   0.000  -0.000  -1.714   0.000  -0.000   0.000   0.000   1.828   0.000  -0.000  -0.000  -0.000
 -0.000   0.000   0.000   0.000  -0.000   0.000   0.000  -2.301   0.000   0.000   0.000   0.000   2.550   0.000  -0.000   0.000
 -0.000  -0.000   0.000   0.000   0.000   0.000   0.000   0.000  -2.033   0.000  -0.092  -0.000   0.000   1.895  -0.000   0.017
  0.000  -0.000  -0.000   0.000  -0.000   0.000   0.000   0.000   0.000  -1.716   0.000  -0.000  -0.000  -0.000   1.829  -0.000
 -0.000   0.000   0.000  -0.000   0.000   0.000   0.000   0.000  -0.092  -0.000  -1.925  -0.000   0.000   0.017  -0.000   1.872
  0.000  -0.000   0.000   0.000   0.000  -0.000   0.000  -0.000  -0.106   0.000   0.185   0.000  -0.000   0.078  -0.000  -0.136
  0.000   0.000   0.000   0.000  -0.000   0.000  -0.000   0.000   0.007  -0.000  -0.012   0.000   0.000  -0.005   0.000   0.008
 total augmentation occupancy for first ion, spin component:           2
 -0.002   0.000   0.000  -0.009   0.000   0.000   0.000  -0.000   0.000   0.000   0.000   0.000   0.000   0.000  -0.000   0.000
  0.000  -0.002  -0.000   0.000  -0.009   0.000   0.000   0.000  -0.000   0.000   0.000  -0.000   0.000   0.000   0.000  -0.000
  0.000  -0.000  -0.002   0.000   0.000  -0.010  -0.000   0.000  -0.000  -0.000   0.000   0.000   0.000   0.000   0.000   0.000
 -0.009   0.000   0.000  -0.005   0.000  -0.000  -0.000  -0.000  -0.000  -0.000  -0.000  -0.000  -0.000   0.000  -0.000  -0.000
  0.000  -0.009   0.000   0.000  -0.005  -0.000   0.000   0.000  -0.000   0.000  -0.000   0.000   0.000   0.000   0.000   0.000
  0.000   0.000  -0.010  -0.000  -0.000  -0.011   0.000  -0.000   0.000  -0.000   0.000   0.000  -0.000   0.000   0.000   0.000
  0.000   0.000  -0.000  -0.000   0.000   0.000   2.425  -0.000   0.000   0.000  -0.000  -1.062   0.000  -0.000   0.000  -0.000
 -0.000   0.000   0.000  -0.000   0.000  -0.000  -0.000   2.438   0.000  -0.000   0.000   0.000  -0.986  -0.000   0.000  -0.000
  0.000  -0.000  -0.000  -0.000  -0.000   0.000   0.000   0.000   2.755  -0.000   0.093   0.000   0.000  -1.169  -0.000  -0.092
  0.000   0.000  -0.000  -0.000   0.000  -0.000   0.000  -0.000  -0.000   2.427  -0.000  -0.000   0.000   0.000  -1.062   0.000
  0.000   0.000   0.000  -0.000  -0.000   0.000  -0.000   0.000   0.093  -0.000   2.646  -0.000   0.000  -0.092   0.000  -1.060
  0.000  -0.000   0.000  -0.000   0.000   0.000  -1.062   0.000   0.000  -0.000  -0.000   0.259   0.000   0.000  -0.000  -0.000
  0.000   0.000   0.000  -0.000   0.000  -0.000   0.000  -0.986   0.000   0.000   0.000   0.000   0.141   0.000  -0.000   0.000
  0.000   0.000   0.000   0.000   0.000   0.000  -0.000  -0.000  -1.169   0.000  -0.092   0.000   0.000   0.353   0.000   0.107
 -0.000   0.000   0.000  -0.000   0.000   0.000   0.000   0.000  -0.000  -1.062   0.000  -0.000  -0.000   0.000   0.259  -0.000
  0.000  -0.000   0.000  -0.000   0.000   0.000  -0.000  -0.000  -0.092   0.000  -1.060  -0.000   0.000   0.107  -0.000   0.229
 -0.000  -0.000   0.000  -0.000  -0.000   0.000   0.000  -0.000  -0.031   0.000   0.056  -0.000   0.000   0.031  -0.000  -0.056
 -0.000   0.000  -0.000   0.000   0.000  -0.000  -0.000   0.000   0.003  -0.000  -0.004   0.000   0.000  -0.000  -0.000   0.001


------------------------ aborting loop because EDIFF is reached ----------------------------------------





 total charge

# of ion       s       p       d       tot
------------------------------------------
    1        0.350   6.333   6.031  12.714
    2        0.350   6.332   6.031  12.714
    3        0.350   6.333   6.031  12.714
    4        0.350   6.332   6.031  12.714
    5        0.350   6.333   6.031  12.714
    6        0.350   6.333   6.031  12.714
    7        0.350   6.333   6.031  12.714
    8        0.350   6.332   6.031  12.714
    9        0.350   6.333   6.031  12.714
   10        0.768   0.713   8.049   9.529
   11        0.768   0.713   8.049   9.530
   12        0.768   0.713   8.049   9.530
--------------------------------------------------
tot          5.457  59.132  78.427 143.016



 magnetization (x)

# of ion       s       p       d       tot
------------------------------------------
    1       -0.002  -0.016   2.728   2.709
    2       -0.002  -0.016   2.729   2.710
    3       -0.002  -0.016   2.728   2.709
    4       -0.002  -0.017   2.729   2.710
    5       -0.002  -0.017   2.728   2.709
    6       -0.002  -0.017   2.728   2.709
    7       -0.002  -0.016   2.728   2.709
    8       -0.002  -0.016   2.729   2.710
    9       -0.002  -0.016   2.728   2.709
   10       -0.041  -0.100   0.449   0.308
   11       -0.041  -0.100   0.449   0.308
   12       -0.041  -0.100   0.449   0.308
--------------------------------------------------
tot         -0.145  -0.448  25.902  25.309
 
    FORLOC:  cpu time      0.0009: real time      0.0009
    FORNL :  cpu time      0.7132: real time      0.7170
    STRESS:  cpu time      4.4106: real time      4.4460
    FORCOR:  cpu time      0.0205: real time      0.0206
    OFIELD:  cpu time      0.0002: real time      0.0002

  FORCE on cell =-STRESS in cart. coord.  units (eV):
  Direction    XX          YY          ZZ          XY          YZ          ZX
  --------------------------------------------------------------------------------------
  Alpha Z  1105.13071  1105.13071  1105.13071
  Ewald   -6056.44156 -6056.44156 -6057.43332     0.00000     0.00000    -0.00000
  Hartree  1870.36009  1870.36009  1869.84603    -0.00000    -0.00000    -0.00000
  E(xc)    -945.10618  -945.10618  -945.10753    -0.00000     0.00000    -0.00000
  Local    1107.92475  1107.92475  1109.18406    -0.00000     0.00000    -0.00000
  n-local  -211.52186  -225.75962  -218.53288    15.19704    -0.09663    -0.07404
  augment  1438.57855  1438.57855  1438.62972     0.00000     0.00000     0.00000
  Kinetic  1703.73111  1697.86606  1700.88948     1.39059     0.21579     0.77489
  Fock        0.00000     0.00000     0.00000     0.00000     0.00000     0.00000
  -------------------------------------------------------------------------------------
  Total       2.60422     2.60422     2.60628     0.00000    -0.00000    -0.00000
  in kB      27.09365    27.09365    27.11507     0.00000    -0.00000    -0.00000
  external pressure =       27.10 kB  Pullay stress =        0.00 kB


 VOLUME and BASIS-vectors are now :
 -----------------------------------------------------------------------------
  energy-cutoff  :      520.00
  volume of cell :      154.00
      direct lattice vectors                 reciprocal lattice vectors
     3.715379666  0.000000000  0.000000000     0.269151497  0.000000000  0.000000000
     0.000000000  3.715379666  0.000000000     0.000000000  0.269151497  0.000000000
    -0.000000000  0.000000000 11.156149383    -0.000000000  0.000000000  0.089636663

  length of vectors
     3.715379666  3.715379666 11.156149383     0.269151497  0.269151497  0.089636663


 FORCES acting on ions:
    Electron-Ion                     Ewald-Force                    Non-Local-Force
 -----------------------------------------------------------------------------------------------
   0.129E-13 0.102E-11 0.291E+00   -.358E-13 -.190E-14 -.285E+00   -.440E-21 0.656E-21 -.999E-02
   0.889E-14 0.111E-11 0.299E-11   -.157E-13 0.343E-14 0.284E-12   0.159E-24 0.572E-24 0.542E-23
   0.755E-14 0.778E-12 -.291E+00   -.319E-13 0.147E-13 0.285E+00   0.424E-21 0.551E-21 0.999E-02
   0.112E-11 0.736E-11 -.157E-11   0.236E-13 -.179E-13 -.341E-12   0.361E-24 0.511E-24 0.208E-24
   0.112E-11 -.432E-11 -.127E+01   -.260E-13 -.256E-13 0.127E+01   0.104E-21 0.206E-21 0.632E-02
   0.112E-11 -.473E-11 0.127E+01   -.561E-13 0.206E-13 -.127E+01   -.325E-21 0.178E-21 -.632E-02
   0.114E-11 -.118E-13 0.291E+00   0.567E-14 -.106E-13 -.285E+00   0.175E-21 -.331E-21 -.999E-02
   0.113E-11 -.224E-13 0.582E-11   0.279E-13 -.688E-15 0.398E-12   -.329E-24 0.129E-24 0.851E-23
   0.115E-11 -.235E-13 -.291E+00   0.410E-13 0.112E-13 0.285E+00   0.200E-20 -.738E-22 0.999E-02
   -.344E-13 -.366E-13 0.633E-12   -.491E-13 -.683E-14 -.227E-12   -.133E-23 0.193E-23 0.564E-24
   -.351E-13 -.360E-13 -.583E+00   -.176E-13 -.119E-14 0.584E+00   -.671E-22 0.183E-20 -.490E-02
   -.349E-13 -.360E-13 0.583E+00   0.693E-13 0.118E-13 -.584E+00   0.253E-21 0.164E-21 0.490E-02
 -----------------------------------------------------------------------------------------------
   0.674E-11 0.106E-11 0.259E-10   -.648E-13 -.300E-14 -.711E-13   0.212E-20 0.318E-20 0.867E-18
 
 
 POSITION                                       TOTAL-FORCE (eV/Angst)
 -----------------------------------------------------------------------------------
     -0.00000      1.85769      1.85953         0.000000      0.000000     -0.003348
     -0.00000      1.85769      5.57807        -0.000000     -0.000000     -0.000000
     -0.00000      1.85769      9.29662        -0.000000      0.000000      0.003348
      1.85769      1.85769     11.15615         0.000000     -0.000000     -0.000000
      1.85769      1.85769      3.71789        -0.000000      0.000000      0.007843
      1.85769      1.85769      7.43826         0.000000      0.000000     -0.007843
      1.85769      0.00000      1.85953         0.000000      0.000000     -0.003348
      1.85769      0.00000      5.57807        -0.000000      0.000000     -0.000000
      1.85769      0.00000      9.29662        -0.000000      0.000000      0.003348
     -0.00000      0.00000     11.15615        -0.000000      0.000000     -0.000000
     -0.00000      0.00000      3.71862         0.000000      0.000000     -0.003707
     -0.00000      0.00000      7.43753        -0.000000      0.000000      0.003707
 -----------------------------------------------------------------------------------
    total drift:                                0.000000      0.000000      0.000000


--------------------------------------------------------------------------------------------------------



  FREE ENERGIE OF THE ION-ELECTRON SYSTEM (eV)
  ---------------------------------------------------
  free  energy   TOTEN  =       -93.50414360 eV

  energy  without entropy=      -93.50831891  energy(sigma->0) =      -93.50553537
 
 d Force = 0.3612079E-04[-0.151E-05, 0.738E-04]  d Energy = 0.6467468E-05 0.297E-04
 d Force = 0.5537782E-02[ 0.150E-02, 0.957E-02]  d Ewald  = 0.5531847E-02 0.593E-05


--------------------------------------------------------------------------------------------------------


    POTLOK:  cpu time      0.0296: real time      0.0298


--------------------------------------------------------------------------------------------------------


 Steepest descent step on ions:
 trial-energy change:   -0.000006  1 .order   -0.000036   -0.000074    0.000002
  (g-gl).g = 0.738E-04      g.g   = 0.738E-04  gl.gl    = 0.000E+00
 g(Force)  = 0.738E-04   g(Stress)= 0.134E-07 ortho     = 0.000E+00
 gamma     =   0.00000
 trial     =   1.00000
 opt step  =   0.98007  (harmonic =   0.98007) maximal distance =0.00071758
 next E    =   -93.504173   (d E  =  -0.00004)


--------------------------------------------------------------------------------------------------------


  
 reached required accuracy - stopping structural energy minimisation
     LOOP+:  cpu time     55.8664: real time     56.4644
    4ORBIT:  cpu time      0.0000: real time      0.0000



 total charge

# of ion       s       p       d       tot
------------------------------------------
    1        0.350   6.333   6.031  12.714
    2        0.350   6.332   6.031  12.714
    3        0.350   6.333   6.031  12.714
    4        0.350   6.332   6.031  12.714
    5        0.350   6.333   6.031  12.714
    6        0.350   6.333   6.031  12.714
    7        0.350   6.333   6.031  12.714
    8        0.350   6.332   6.031  12.714
    9        0.350   6.333   6.031  12.714
   10        0.768   0.713   8.049   9.529
   11        0.768   0.713   8.049   9.530
   12        0.768   0.713   8.049   9.530
--------------------------------------------------
tot          5.457  59.132  78.427 143.016



 magnetization (x)

# of ion       s       p       d       tot
------------------------------------------
    1       -0.002  -0.016   2.728   2.709
    2       -0.002  -0.016   2.729   2.710
    3       -0.002  -0.016   2.728   2.709
    4       -0.002  -0.017   2.729   2.710
    5       -0.002  -0.017   2.728   2.709
    6       -0.002  -0.017   2.728   2.709
    7       -0.002  -0.016   2.728   2.709
    8       -0.002  -0.016   2.729   2.710
    9       -0.002  -0.016   2.728   2.709
   10       -0.041  -0.100   0.449   0.308
   11       -0.041  -0.100   0.449   0.308
   12       -0.041  -0.100   0.449   0.308
--------------------------------------------------
tot         -0.145  -0.448  25.902  25.309
 

 total amount of memory used by VASP MPI-rank0   282731. kBytes
=======================================================================

   base      :      30000. kBytes
   nonl-proj :     102217. kBytes
   fftplans  :        888. kBytes
   grid      :       6813. kBytes
   one-center:        373. kBytes
   wavefun   :     142440. kBytes
 
  
  
 General timing and accounting informations for this job:
 ========================================================
  
                  Total CPU time used (sec):      248.250
                            User time (sec):      241.601
                          System time (sec):        6.649
                         Elapsed time (sec):      257.170
  
                   Maximum memory used (kb):     1176500.
                   Average memory used (kb):          N/A
  
                          Minor page faults:       161766
                          Major page faults:           92
                 Voluntary context switches:         8868
