 vasp.6.4.3 19Mar24 (build Mar 26 2024 14:05:37) complex                        
  
 executed on             LinuxIFC date 2024.12.16  08:17:53
 running  128 mpi-ranks, on    1 nodes
 distrk:  each k-point on   32 cores,    4 groups
 distr:  one band on NCORE=   1 cores,   32 groups


--------------------------------------------------------------------------------------------------------


 INCAR:
   ALGO = Normal
   EDIFF = 1e-06
   EDIFFG = -0.01
   ENCUT = 520
   GGA = Pe
   IBRION = -1
   ISIF = 4
   ISMEAR = -5
   ISPIN = 2
   KPAR = 4
   LCHARG = True
   LORBIT = 11
   LREAL = False
   LWAVE = False
   MAGMOM = 1*2.709 1*2.71 1*2.709 1*2.708 2*2.71 1*2.709 1*2.71 1*2.709 3*0.308
   NELM = 200
   NSW = 0
   PREC = Accurate
   SIGMA = 0.2

 POTCAR:    PAW_PBE Fe_pv 02Aug2007               
 POTCAR:    PAW_PBE Pt 04Feb2005                  
 -----------------------------------------------------------------------------
|                                                                             |
|           W    W    AA    RRRRR   N    N  II  N    N   GGGG   !!!           |
|           W    W   A  A   R    R  NN   N  II  NN   N  G    G  !!!           |
|           W    W  A    A  R    R  N N  N  II  N N  N  G       !!!           |
|           W WW W  AAAAAA  RRRRR   N  N N  II  N  N N  G  GGG   !            |
|           WW  WW  A    A  R   R   N   NN  II  N   NN  G    G                |
|           W    W  A    A  R    R  N    N  II  N    N   GGGG   !!!           |
|                                                                             |
|     For optimal performance we recommend to set                             |
|       NCORE = 2 up to number-of-cores-per-socket                            |
|     NCORE specifies how many cores store one orbital (NPAR=cpu/NCORE).      |
|     This setting can greatly improve the performance of VASP for DFT.       |
|     The default, NCORE=1 might be grossly inefficient on modern             |
|     multi-core architectures or massively parallel machines. Do your        |
|     own testing! More info at https://www.vasp.at/wiki/index.php/NCORE      |
|     Unfortunately you need to use the default for GW and RPA                |
|     calculations (for HF NCORE is supported but not extensively tested      |
|     yet).                                                                   |
|                                                                             |
 -----------------------------------------------------------------------------

 POTCAR:    PAW_PBE Fe_pv 02Aug2007               
   SHA256 =  5d22e414b1f82158bf2c7ecb8b97b28fd0923e48cadc1c3bf74d524558f5dd32 Fe_pv/POTCAR          
   COPYR  = (c) Copyright 02Aug2007 Georg Kresse                                                    
   COPYR  = This file is part of the software VASP. Any use, copying, and all other rights are regul
   COPYR  = If you do not have a valid VASP license, you may not use, copy or distribute this file. 
   VRHFIN =Fe:  3pd7s1                                                                              
   LEXCH  = PE                                                                                      
   EATOM  =  2457.4239 eV,  180.6156 Ry                                                             
                                                                                                    
   TITEL  = PAW_PBE Fe_pv 02Aug2007                                                                 
   LULTRA =        F    use ultrasoft PP ?                                                          
   IUNSCR =        1    unscreen: 0-lin 1-nonlin 2-no                                               
   RPACOR =    1.750    partial core radius                                                         
   POMASS =   55.847; ZVAL   =   14.000    mass and valenz                                          
   RCORE  =    2.200    outmost cutoff radius                                                       
   RWIGS  =    2.200; RWIGS  =    1.164    wigner-seitz radius (au A)                               
   ENMAX  =  293.238; ENMIN  =  219.928 eV                                                          
   ICORE  =        3    local potential                                                             
   LCOR   =        T    correct aug charges                                                         
   LPAW   =        T    paw PP                                                                      
   EAUG   =  578.342                                                                                
   DEXC   =    0.000                                                                                
   RMAX   =    2.249    core radius for proj-oper                                                   
   RAUG   =    1.300    factor for augmentation sphere                                              
   RDEP   =    2.296    radius for radial grids                                                     
   RDEPT  =    1.766    core radius for aug-charge                                                  
                                                                                                    
   Atomic configuration                                                                             
    8 entries                                                                                       
     n  l   j            E        occ.                                                              
     1  0  0.50     -6993.8440   2.0000                                                             
     2  0  0.50      -814.6047   2.0000                                                             
     2  1  1.50      -693.3689   6.0000                                                             
     3  0  0.50       -89.4732   2.0000                                                             
     3  1  1.50       -55.6373   6.0000                                                             
     3  2  2.50        -3.8151   7.0000                                                             
     4  0  0.50        -4.2551   1.0000                                                             
     4  3  2.50        -1.3606   0.0000                                                             
   Description                                                                                      
     l       E           TYP  RCUT    TYP  RCUT                                                     
     1    -55.6372668     23  2.000                                                                 
     1     -5.4423304     23  2.000                                                                 
     2     -3.8151096     23  2.200                                                                 
     2     -5.1756922     23  2.200                                                                 
     0     -4.2550951     23  2.200                                                                 
     0     27.2116520     23  2.200                                                                 
     3     -1.3605826     23  2.200                                                                 
  local pseudopotential read in
  partial core-charges read in
  partial kinetic energy density read in
  atomic valenz-charges read in
  non local Contribution for L=           1  read in
    real space projection operators read in
  non local Contribution for L=           1  read in
    real space projection operators read in
  non local Contribution for L=           2  read in
    real space projection operators read in
  non local Contribution for L=           2  read in
    real space projection operators read in
  non local Contribution for L=           0  read in
    real space projection operators read in
  non local Contribution for L=           0  read in
    real space projection operators read in
    PAW grid and wavefunctions read in
 
   number of l-projection  operators is LMAX  =           6
   number of lm-projection operators is LMMAX =          18
 
 POTCAR:    PAW_PBE Pt 04Feb2005                  
   SHA256 =  3ed90460adef76debcff1cfb73ee1349b515b1a3db03439735b44de3a8db7dc8 Pt/POTCAR             
   COPYR  = (c) Copyright 04Feb2005 Georg Kresse                                                    
   COPYR  = This file is part of the software VASP. Any use, copying, and all other rights are regul
   COPYR  = If you do not have a valid VASP license, you may not use, copy or distribute this file. 
   VRHFIN =Pt: s1d9                                                                                 
   LEXCH  = PE                                                                                      
   EATOM  =   729.1176 eV,   53.5886 Ry                                                             
                                                                                                    
   TITEL  = PAW_PBE Pt 04Feb2005                                                                    
   LULTRA =        F    use ultrasoft PP ?                                                          
   IUNSCR =        1    unscreen: 0-lin 1-nonlin 2-no                                               
   RPACOR =    2.330    partial core radius                                                         
   POMASS =  195.080; ZVAL   =   10.000    mass and valenz                                          
   RCORE  =    2.600    outmost cutoff radius                                                       
   RWIGS  =    2.750; RWIGS  =    1.455    wigner-seitz radius (au A)                               
   ENMAX  =  230.283; ENMIN  =  172.712 eV                                                          
   ICORE  =        3    local potential                                                             
   LCOR   =        T    correct aug charges                                                         
   LPAW   =        T    paw PP                                                                      
   EAUG   =  358.966                                                                                
   DEXC   =    0.000                                                                                
   RMAX   =    2.658    core radius for proj-oper                                                   
   RAUG   =    1.300    factor for augmentation sphere                                              
   RDEP   =    2.761    radius for radial grids                                                     
   RDEPT  =    2.203    core radius for aug-charge                                                  
                                                                                                    
   Atomic configuration                                                                             
   16 entries                                                                                       
     n  l   j            E        occ.                                                              
     1  0  0.50    -78401.1885   2.0000                                                             
     2  0  0.50    -13770.7750   2.0000                                                             
     2  1  1.50    -11931.0468   6.0000                                                             
     3  0  0.50     -3234.7234   2.0000                                                             
     3  1  1.50     -2699.2216   6.0000                                                             
     3  2  2.50     -2119.5714  10.0000                                                             
     4  0  0.50      -695.1528   2.0000                                                             
     4  1  1.50      -519.6034   6.0000                                                             
     4  2  2.50      -306.6786  10.0000                                                             
     4  3  3.50       -70.1041  14.0000                                                             
     5  0  0.50      -101.7747   2.0000                                                             
     5  1  1.50       -55.9873   6.0000                                                             
     5  2  2.50        -6.1423   9.0000                                                             
     6  0  0.50        -5.6573   1.0000                                                             
     6  1  1.50        -6.8029   0.0000                                                             
     5  3  2.50        -1.3606   0.0000                                                             
   Description                                                                                      
     l       E           TYP  RCUT    TYP  RCUT                                                     
     2     -6.1423404     23  2.500                                                                 
     2     -7.5029230     23  2.500                                                                 
     0     -5.6573207     23  2.500                                                                 
     0      0.7416693     23  2.500                                                                 
     1     -2.7211652     23  2.600                                                                 
     1     20.4087390     23  2.600                                                                 
     3     -1.3605826     23  2.500                                                                 
  local pseudopotential read in
  partial core-charges read in
  partial kinetic energy density read in
  atomic valenz-charges read in
  non local Contribution for L=           2  read in
    real space projection operators read in
  non local Contribution for L=           2  read in
    real space projection operators read in
  non local Contribution for L=           0  read in
    real space projection operators read in
  non local Contribution for L=           0  read in
    real space projection operators read in
  non local Contribution for L=           1  read in
    real space projection operators read in
  non local Contribution for L=           1  read in
    real space projection operators read in
    PAW grid and wavefunctions read in
 
   number of l-projection  operators is LMAX  =           6
   number of lm-projection operators is LMMAX =          18
 
  PAW_PBE Fe_pv 02Aug2007               :
 energy of atom  1       EATOM=-2457.4239
 kinetic energy error for atom=    0.0062 (will be added to EATOM!!)
  PAW_PBE Pt 04Feb2005                  :
 energy of atom  2       EATOM= -729.1176
 kinetic energy error for atom=    0.0032 (will be added to EATOM!!)
 
 
 POSCAR: Fe9 Pt3
  positions in direct lattice
  velocities in cartesian coordinates


 exchange-correlation table for PE
   RHO(1)=    0.500       N(1)  =     2000
   RHO(2)=  100.500       N(2)  =     4000
 


--------------------------------------------------------------------------------------------------------


 ion  position               nearest neighbor table
   1  0.000  0.500  0.167-   7 2.63   7 2.63   7 2.63   7 2.63  10 2.63   4 2.63  10 2.63   4 2.63
                             5 2.63   5 2.63  11 2.63  11 2.63
   2  0.000  0.500  0.500-   8 2.63   8 2.63   8 2.63   8 2.63  11 2.63  12 2.63  12 2.63  11 2.63
                             5 2.63   6 2.63   5 2.63   6 2.63
   3  0.000  0.500  0.833-   9 2.63   9 2.63   9 2.63   9 2.63  10 2.63   4 2.63  10 2.63   4 2.63
                             6 2.63   6 2.63  12 2.63  12 2.63
   4  0.500  0.500  0.000-  10 2.63  10 2.63  10 2.63  10 2.63   1 2.63   7 2.63   9 2.63   3 2.63
                             1 2.63   3 2.63   7 2.63   9 2.63
   5  0.500  0.500  0.333-  11 2.63  11 2.63  11 2.63  11 2.63   7 2.63   1 2.63   1 2.63   7 2.63
                             8 2.63   2 2.63   8 2.63   2 2.63
   6  0.500  0.500  0.667-  12 2.63  12 2.63  12 2.63  12 2.63   9 2.63   3 2.63   3 2.63   9 2.63
                             2 2.63   8 2.63   2 2.63   8 2.63
   7  0.500  0.000  0.167-   1 2.63   1 2.63   1 2.63   1 2.63   4 2.63  10 2.63  10 2.63   4 2.63
                             5 2.63   5 2.63  11 2.63  11 2.63
   8  0.500  0.000  0.500-   2 2.63   2 2.63   2 2.63   2 2.63  12 2.63  11 2.63  12 2.63  11 2.63
                             6 2.63   5 2.63   5 2.63   6 2.63
   9  0.500  0.000  0.833-   3 2.63   3 2.63   3 2.63   3 2.63   4 2.63  10 2.63  10 2.63   4 2.63
                             6 2.63   6 2.63  12 2.63  12 2.63
  10  0.000  0.000  0.000-   4 2.63   4 2.63   4 2.63   4 2.63   9 2.63   1 2.63   3 2.63   3 2.63
                             1 2.63   7 2.63   9 2.63   7 2.63
  11  0.000  0.000  0.333-   5 2.63   5 2.63   5 2.63   5 2.63   2 2.63   8 2.63   8 2.63   2 2.63
                             1 2.63   7 2.63   7 2.63   1 2.63
  12  0.000  0.000  0.667-   6 2.63   6 2.63   6 2.63   6 2.63   2 2.63   8 2.63   8 2.63   2 2.63
                             3 2.63   3 2.63   9 2.63   9 2.63
 
  LATTYP: Found a simple tetragonal cell.
 ALAT       =     3.7153634900
 C/A-ratio  =     3.0027335306
  
  Lattice vectors:
  
 A1 = (   3.7153634900,   0.0000000000,   0.0000000000)
 A2 = (   0.0000000000,   3.7153634900,   0.0000000000)
 A3 = (   0.0000000000,   0.0000000000,  11.1562465297)


Analysis of symmetry for initial positions (statically):
=====================================================================
 Subroutine PRICEL returns:
 Original cell was already a primitive cell.
 

 Routine SETGRP: Setting up the symmetry group for a 
 simple tetragonal supercell.


 Subroutine GETGRP returns: Found 16 space group operations
 (whereof 16 operations were pure point group operations)
 out of a pool of 16 trial point group operations.


The static configuration has the point symmetry D_4h.


Analysis of symmetry for dynamics (positions and initial velocities):
=====================================================================
 Subroutine PRICEL returns:
 Original cell was already a primitive cell.
 

 Routine SETGRP: Setting up the symmetry group for a 
 simple tetragonal supercell.


 Subroutine GETGRP returns: Found 16 space group operations
 (whereof 16 operations were pure point group operations)
 out of a pool of 16 trial point group operations.


The dynamic configuration has the point symmetry D_4h.


Analysis of structural, dynamic, and magnetic symmetry:
=====================================================================
 Subroutine PRICEL returns:
 Original cell was already a primitive cell.
 

 Routine SETGRP: Setting up the symmetry group for a 
 simple tetragonal supercell.


 Subroutine GETGRP returns: Found 16 space group operations
 (whereof 16 operations were pure point group operations)
 out of a pool of 16 trial point group operations.


The overall configuration has the point symmetry D_4h.


 Subroutine INISYM returns: Found 16 space group operations
 (whereof 16 operations are pure point group operations),
 and found     1 'primitive' translations


----------------------------------------------------------------------------------------

                                     Primitive cell                                     

  volume of cell :     154.0000

  direct lattice vectors                    reciprocal lattice vectors
     3.715363490  0.000000000  0.000000000     0.269152669  0.000000000  0.000000000
     0.000000000  3.715363490  0.000000000     0.000000000  0.269152669  0.000000000
     0.000000000  0.000000000 11.156246530     0.000000000  0.000000000  0.089635882

  length of vectors
     3.715363490  3.715363490 11.156246530     0.269152669  0.269152669  0.089635882

  position of ions in fractional coordinates (direct lattice)
     0.000000000  0.500000000  0.166611204
     0.000000000  0.500000000  0.500000000
     0.000000000  0.500000000  0.833388796
     0.500000000  0.500000000  0.000000000
     0.500000000  0.500000000  0.333261410
     0.500000000  0.500000000  0.666738590
     0.500000000  0.000000000  0.166611204
     0.500000000  0.000000000  0.500000000
     0.500000000  0.000000000  0.833388796
     0.000000000  0.000000000  0.000000000
     0.000000000  0.000000000  0.333324505
     0.000000000  0.000000000  0.666675495

  ion indices of the primitive-cell ions
   primitive index   ion index
                 1           1
                 2           2
                 3           3
                 4           4
                 5           5
                 6           6
                 7           7
                 8           8
                 9           9
                10          10
                11          11
                12          12

----------------------------------------------------------------------------------------

 
 
 KPOINTS: pymatgen with grid density = 8800 / numb

Automatic generation of k-mesh.
 Grid dimensions read from file:
 generate k-points for:   13   13    4

 Generating k-lattice:

  Cartesian coordinates                     Fractional coordinates (reciprocal lattice)
     0.020704051  0.000000000  0.000000000     0.076923077  0.000000000  0.000000000
     0.000000000  0.020704051  0.000000000     0.000000000  0.076923077  0.000000000
     0.000000000  0.000000000  0.022408971     0.000000000  0.000000000  0.250000000

  Length of vectors
     0.020704051  0.020704051  0.022408971

  Shift w.r.t. Gamma in fractional coordinates (k-lattice)
     0.000000000  0.000000000  0.000000000

 TETIRR: Found   1010 inequivalent tetrahedra from     4056
 
 Subroutine IBZKPT returns following result:
 ===========================================
 
 Found     84 irreducible k-points:
 
 Following reciprocal coordinates:
            Coordinates               Weight
  0.000000  0.000000  0.000000      1.000000
  0.076923  0.000000  0.000000      4.000000
  0.153846  0.000000  0.000000      4.000000
  0.230769  0.000000  0.000000      4.000000
  0.307692  0.000000  0.000000      4.000000
  0.384615  0.000000  0.000000      4.000000
  0.461538  0.000000  0.000000      4.000000
  0.076923  0.076923  0.000000      4.000000
  0.153846  0.076923  0.000000      8.000000
  0.230769  0.076923  0.000000      8.000000
  0.307692  0.076923  0.000000      8.000000
  0.384615  0.076923  0.000000      8.000000
  0.461538  0.076923  0.000000      8.000000
  0.153846  0.153846  0.000000      4.000000
  0.230769  0.153846  0.000000      8.000000
  0.307692  0.153846  0.000000      8.000000
  0.384615  0.153846  0.000000      8.000000
  0.461538  0.153846  0.000000      8.000000
  0.230769  0.230769  0.000000      4.000000
  0.307692  0.230769  0.000000      8.000000
  0.384615  0.230769  0.000000      8.000000
  0.461538  0.230769  0.000000      8.000000
  0.307692  0.307692  0.000000      4.000000
  0.384615  0.307692  0.000000      8.000000
  0.461538  0.307692  0.000000      8.000000
  0.384615  0.384615  0.000000      4.000000
  0.461538  0.384615  0.000000      8.000000
  0.461538  0.461538  0.000000      4.000000
  0.000000  0.000000  0.250000      2.000000
  0.076923  0.000000  0.250000      8.000000
  0.153846  0.000000  0.250000      8.000000
  0.230769  0.000000  0.250000      8.000000
  0.307692  0.000000  0.250000      8.000000
  0.384615  0.000000  0.250000      8.000000
  0.461538  0.000000  0.250000      8.000000
  0.076923  0.076923  0.250000      8.000000
  0.153846  0.076923  0.250000     16.000000
  0.230769  0.076923  0.250000     16.000000
  0.307692  0.076923  0.250000     16.000000
  0.384615  0.076923  0.250000     16.000000
  0.461538  0.076923  0.250000     16.000000
  0.153846  0.153846  0.250000      8.000000
  0.230769  0.153846  0.250000     16.000000
  0.307692  0.153846  0.250000     16.000000
  0.384615  0.153846  0.250000     16.000000
  0.461538  0.153846  0.250000     16.000000
  0.230769  0.230769  0.250000      8.000000
  0.307692  0.230769  0.250000     16.000000
  0.384615  0.230769  0.250000     16.000000
  0.461538  0.230769  0.250000     16.000000
  0.307692  0.307692  0.250000      8.000000
  0.384615  0.307692  0.250000     16.000000
  0.461538  0.307692  0.250000     16.000000
  0.384615  0.384615  0.250000      8.000000
  0.461538  0.384615  0.250000     16.000000
  0.461538  0.461538  0.250000      8.000000
  0.000000  0.000000  0.500000      1.000000
  0.076923  0.000000  0.500000      4.000000
  0.153846  0.000000  0.500000      4.000000
  0.230769  0.000000  0.500000      4.000000
  0.307692  0.000000  0.500000      4.000000
  0.384615  0.000000  0.500000      4.000000
  0.461538  0.000000  0.500000      4.000000
  0.076923  0.076923  0.500000      4.000000
  0.153846  0.076923  0.500000      8.000000
  0.230769  0.076923  0.500000      8.000000
  0.307692  0.076923  0.500000      8.000000
  0.384615  0.076923  0.500000      8.000000
  0.461538  0.076923  0.500000      8.000000
  0.153846  0.153846  0.500000      4.000000
  0.230769  0.153846  0.500000      8.000000
  0.307692  0.153846  0.500000      8.000000
  0.384615  0.153846  0.500000      8.000000
  0.461538  0.153846  0.500000      8.000000
  0.230769  0.230769  0.500000      4.000000
  0.307692  0.230769  0.500000      8.000000
  0.384615  0.230769  0.500000      8.000000
  0.461538  0.230769  0.500000      8.000000
  0.307692  0.307692  0.500000      4.000000
  0.384615  0.307692  0.500000      8.000000
  0.461538  0.307692  0.500000      8.000000
  0.384615  0.384615  0.500000      4.000000
  0.461538  0.384615  0.500000      8.000000
  0.461538  0.461538  0.500000      4.000000
 
 Following cartesian coordinates:
            Coordinates               Weight
  0.000000  0.000000  0.000000      1.000000
  0.020704  0.000000  0.000000      4.000000
  0.041408  0.000000  0.000000      4.000000
  0.062112  0.000000  0.000000      4.000000
  0.082816  0.000000  0.000000      4.000000
  0.103520  0.000000  0.000000      4.000000
  0.124224  0.000000  0.000000      4.000000
  0.020704  0.020704  0.000000      4.000000
  0.041408  0.020704  0.000000      8.000000
  0.062112  0.020704  0.000000      8.000000
  0.082816  0.020704  0.000000      8.000000
  0.103520  0.020704  0.000000      8.000000
  0.124224  0.020704  0.000000      8.000000
  0.041408  0.041408  0.000000      4.000000
  0.062112  0.041408  0.000000      8.000000
  0.082816  0.041408  0.000000      8.000000
  0.103520  0.041408  0.000000      8.000000
  0.124224  0.041408  0.000000      8.000000
  0.062112  0.062112  0.000000      4.000000
  0.082816  0.062112  0.000000      8.000000
  0.103520  0.062112  0.000000      8.000000
  0.124224  0.062112  0.000000      8.000000
  0.082816  0.082816  0.000000      4.000000
  0.103520  0.082816  0.000000      8.000000
  0.124224  0.082816  0.000000      8.000000
  0.103520  0.103520  0.000000      4.000000
  0.124224  0.103520  0.000000      8.000000
  0.124224  0.124224  0.000000      4.000000
  0.000000  0.000000  0.022409      2.000000
  0.020704  0.000000  0.022409      8.000000
  0.041408  0.000000  0.022409      8.000000
  0.062112  0.000000  0.022409      8.000000
  0.082816  0.000000  0.022409      8.000000
  0.103520  0.000000  0.022409      8.000000
  0.124224  0.000000  0.022409      8.000000
  0.020704  0.020704  0.022409      8.000000
  0.041408  0.020704  0.022409     16.000000
  0.062112  0.020704  0.022409     16.000000
  0.082816  0.020704  0.022409     16.000000
  0.103520  0.020704  0.022409     16.000000
  0.124224  0.020704  0.022409     16.000000
  0.041408  0.041408  0.022409      8.000000
  0.062112  0.041408  0.022409     16.000000
  0.082816  0.041408  0.022409     16.000000
  0.103520  0.041408  0.022409     16.000000
  0.124224  0.041408  0.022409     16.000000
  0.062112  0.062112  0.022409      8.000000
  0.082816  0.062112  0.022409     16.000000
  0.103520  0.062112  0.022409     16.000000
  0.124224  0.062112  0.022409     16.000000
  0.082816  0.082816  0.022409      8.000000
  0.103520  0.082816  0.022409     16.000000
  0.124224  0.082816  0.022409     16.000000
  0.103520  0.103520  0.022409      8.000000
  0.124224  0.103520  0.022409     16.000000
  0.124224  0.124224  0.022409      8.000000
  0.000000  0.000000  0.044818      1.000000
  0.020704  0.000000  0.044818      4.000000
  0.041408  0.000000  0.044818      4.000000
  0.062112  0.000000  0.044818      4.000000
  0.082816  0.000000  0.044818      4.000000
  0.103520  0.000000  0.044818      4.000000
  0.124224  0.000000  0.044818      4.000000
  0.020704  0.020704  0.044818      4.000000
  0.041408  0.020704  0.044818      8.000000
  0.062112  0.020704  0.044818      8.000000
  0.082816  0.020704  0.044818      8.000000
  0.103520  0.020704  0.044818      8.000000
  0.124224  0.020704  0.044818      8.000000
  0.041408  0.041408  0.044818      4.000000
  0.062112  0.041408  0.044818      8.000000
  0.082816  0.041408  0.044818      8.000000
  0.103520  0.041408  0.044818      8.000000
  0.124224  0.041408  0.044818      8.000000
  0.062112  0.062112  0.044818      4.000000
  0.082816  0.062112  0.044818      8.000000
  0.103520  0.062112  0.044818      8.000000
  0.124224  0.062112  0.044818      8.000000
  0.082816  0.082816  0.044818      4.000000
  0.103520  0.082816  0.044818      8.000000
  0.124224  0.082816  0.044818      8.000000
  0.103520  0.103520  0.044818      4.000000
  0.124224  0.103520  0.044818      8.000000
  0.124224  0.124224  0.044818      4.000000
 


--------------------------------------------------------------------------------------------------------




 Dimension of arrays:
   k-points           NKPTS =     84   k-points in BZ     NKDIM =     84   number of bands    NBANDS=    128
   number of dos      NEDOS =    301   number of ions     NIONS =     12
   non local maximal  LDIM  =      6   non local SUM 2l+1 LMDIM =     18
   total plane-waves  NPLWV =  65856
   max r-space proj   IRMAX =      1   max aug-charges    IRDMAX=  26097
   dimension x,y,z NGX =    28 NGY =   28 NGZ =   84
   dimension x,y,z NGXF=    56 NGYF=   56 NGZF=  168
   support grid    NGXF=    56 NGYF=   56 NGZF=  168
   ions per type =               9   3
   NGX,Y,Z   is equivalent  to a cutoff of  12.53, 12.53, 12.52 a.u.
   NGXF,Y,Z  is equivalent  to a cutoff of  25.06, 25.06, 25.03 a.u.

 SYSTEM =  unknown system                          
 POSCAR =  Fe9 Pt3                                 

 Startparameter for this run:
   NWRITE =      2    write-flag & timer
   PREC   = accura    normal or accurate (medium, high low for compatibility)
   ISTART =      0    job   : 0-new  1-cont  2-samecut
   ICHARG =      2    charge: 1-file 2-atom 10-const
   ISPIN  =      2    spin polarized calculation?
   LNONCOLLINEAR =      F non collinear calculations
   LSORBIT =      F    spin-orbit coupling
   INIWAV =      1    electr: 0-lowe 1-rand  2-diag
   LASPH  =      F    aspherical Exc in radial PAW
 Electronic Relaxation 1
   ENCUT  =  520.0 eV  38.22 Ry    6.18 a.u.   6.91  6.91 20.74*2*pi/ulx,y,z
   ENINI  =  520.0     initial cutoff
   ENAUG  =  578.3 eV  augmentation charge cutoff
   NELM   =    200;   NELMIN=  2; NELMDL=  0     # of ELM steps 
   EDIFF  = 0.1E-05   stopping-criterion for ELM
   LREAL  =      F    real-space projection
   NLSPLINE    = F    spline interpolate recip. space projectors
   LCOMPAT=      F    compatible to vasp.4.4
   GGA_COMPAT  = T    GGA compatible to vasp.4.4-vasp.4.6
   LMAXPAW     = -100 max onsite density
   LMAXMIX     =    2 max onsite mixed and CHGCAR
   VOSKOWN=      0    Vosko Wilk Nusair interpolation
   ROPT   =    0.00000   0.00000
 Ionic relaxation
   EDIFFG = -.1E-01   stopping-criterion for IOM
   NSW    =      0    number of steps for IOM
   NBLOCK =      1;   KBLOCK =      1    inner block; outer block 
   IBRION =     -1    ionic relax: 0-MD 1-quasi-New 2-CG
   NFREE  =      0    steps in history (QN), initial steepest desc. (CG)
   ISIF   =      4    stress and relaxation
   IWAVPR =     10    prediction:  0-non 1-charg 2-wave 3-comb
   ISYM   =      2    0-nonsym 1-usesym 2-fastsym
   LCORR  =      T    Harris-Foulkes like correction to forces

   POTIM  = 0.5000    time-step for ionic-motion
   TEIN   =    0.0    initial temperature
   TEBEG  =    0.0;   TEEND  =   0.0 temperature during run
   SMASS  =  -3.00    Nose mass-parameter (am)
   estimated Nose-frequenzy (Omega)   =  0.10E-29 period in steps = 0.13E+47 mass=  -0.315E-27a.u.
   SCALEE = 1.0000    scale energy and forces
   NPACO  =    256;   APACO  = 10.0  distance and # of slots for P.C.
   PSTRESS=    0.0 pullay stress

  Mass of Ions in am
   POMASS =  55.85195.08
  Ionic Valenz
   ZVAL   =  14.00 10.00
  Atomic Wigner-Seitz radii
   RWIGS  =  -1.00 -1.00
  virtual crystal weights 
   VCA    =   1.00  1.00
   NELECT =     156.0000    total number of electrons
   NUPDOWN=      -1.0000    fix difference up-down

 DOS related values:
   EMIN   =  10.00;   EMAX   =-10.00  energy-range for DOS
   EFERMI =   0.00;   METHOD = LEGACY      
   ISMEAR =    -5;   SIGMA  =   0.20  broadening in eV -4-tet -1-fermi 0-gaus

 Electronic relaxation 2 (details)
   IALGO  =     38    algorithm
   LDIAG  =      T    sub-space diagonalisation (order eigenvalues)
   LSUBROT=      F    optimize rotation matrix (better conditioning)
   TURBO    =      0    0=normal 1=particle mesh
   IRESTART =      0    0=no restart 2=restart with 2 vectors
   NREBOOT  =      0    no. of reboots
   NMIN     =      0    reboot dimension
   EREF     =   0.00    reference energy to select bands
   IMIX   =      4    mixing-type and parameters
     AMIX     =   0.40;   BMIX     =  1.00
     AMIX_MAG =   1.60;   BMIX_MAG =  1.00
     AMIN     =   0.10
     WC   =   100.;   INIMIX=   1;  MIXPRE=   1;  MAXMIX= -45

 Intra band minimization:
   WEIMIN = 0.0000     energy-eigenvalue tresh-hold
   EBREAK =  0.20E-08  absolut break condition
   DEPER  =   0.30     relativ break condition  

   TIME   =   0.40     timestep for ELM

  volume/ion in A,a.u.               =      12.83        86.60
  Fermi-wavevector in a.u.,A,eV,Ry     =   1.644155  3.107003 36.779896  2.703246
  Thomas-Fermi vector in A             =   2.734169
 
 Write flags
   LWAVE        =      F    write WAVECAR
   LDOWNSAMPLE  =      F    k-point downsampling of WAVECAR
   LCHARG       =      T    write CHGCAR
   LVTOT        =      F    write LOCPOT, total local potential
   LVHAR        =      F    write LOCPOT, Hartree potential only
   WRT_POTENTIAL= false  ! write potential to hdf5 file
   LELF         =      F    write electronic localiz. function (ELF)
   LORBIT       =     11    0 simple, 1 ext, 2 COOP (PROOUT), +10 PAW based schemes


 Dipole corrections
   LMONO      =      F    monopole corrections only (constant potential shift)
   LDIPOL     =      F    correct potential (dipole corrections)
   IDIPOL     =      0    1-x, 2-y, 3-z, 4-all directions 
   EPSILON    =  1.0000000 bulk dielectric constant
   LVACPOTAV  =      F  vacuum potentials using an averaging scheme for the charge density
   VACPOTFLAT =  0.1000000 required flatness to determine vacuum potential
 Exchange correlation treatment:
   GGA     = PE    functional components
   XC_C    = 1    coefficients multiplying the functional components
   LIBXC   =     F    Libxc                    
   VOSKOWN =     0    Vosko Wilk Nusair interpolation
   LHFCALC =     F    Hartree Fock is set to
   LHFONE  =     F    Hartree Fock one center treatment
   AEXX    =    0.0000 exact exchange contribution

 Parameters of functionals:
   PE:
     No parameter
 
 Van der Waals corrections
   IVDW    =     0    specifies the selected vdW correction

 Linear response parameters
   LEPSILON=     F    determine dielectric tensor
   LRPA    =     F    only Hartree local field effects (RPA)
   LNABLA  =     F    use nabla operator in PAW spheres
   LVEL    =     F    velocity operator in full k-point grid
   CSHIFT  =0.1000    complex shift for real part using Kramers Kronig
   OMEGAMAX=  -1.0    maximum frequency
   DEG_THRESHOLD= 0.2000000E-02 threshold for treating states as degnerate
   RTIME   =   -0.100 relaxation time in fs
  (WPLASMAI=    0.000 imaginary part of plasma frequency in eV, 0.658/RTIME)
   DFIELD  = 0.0000000 0.0000000 0.0000000 field for delta impulse in time
 
  Optional k-point grid parameters
   LKPOINTS_OPT  =     F    use optional k-point grid
   KPOINTS_OPT_MODE=     1    mode for optional k-point grid
 
 Orbital magnetization related:
   ORBITALMAG=     F  switch on orbital magnetization
   LCHIMAG   =     F  perturbation theory with respect to B field
   DQ        =  0.001000  dq finite difference perturbation B field
   LLRAUG    =     F  two centre corrections for induced B field
   LBONE     =     F  B-component reconstruction in AE one-centre
   LVGVCALC  =     T  calculate vGv susceptibility
   LVGVAPPL  =     F  apply vGv susceptibility instead of pGv for G=0

 Random number generation:
   RANDOM_GENERATOR = DEFAULT
   PCG_SEED         = not used


--------------------------------------------------------------------------------------------------------


 Static calculation
 charge density and potential will be updated during run
 spin polarized calculation
 Variant of blocked Davidson
 Davidson routine will perform the subspace rotation
 perform sub-space diagonalisation
    after iterative eigenvector-optimisation
 modified Broyden-mixing scheme, WC =      100.0
 initial mixing is a Kerker type mixing with AMIX =  0.4000 and BMIX =      1.0000
 Hartree-type preconditioning will be used
 using additional bands           50
 reciprocal scheme for non local part
 use partial core corrections
 calculate Harris-corrections to forces 
   (improved forces if not selfconsistent)
 use gradient corrections 
 use of overlap-Matrix (Vanderbilt PP)
 Fermi weights with tetrahedron method with Bloechl corrections


--------------------------------------------------------------------------------------------------------


  energy-cutoff  :      520.00
  volume of cell :      154.00
      direct lattice vectors                 reciprocal lattice vectors
     3.715363490  0.000000000  0.000000000     0.269152669  0.000000000  0.000000000
     0.000000000  3.715363490  0.000000000     0.000000000  0.269152669  0.000000000
     0.000000000  0.000000000 11.156246530     0.000000000  0.000000000  0.089635882

  length of vectors
     3.715363490  3.715363490 11.156246530     0.269152669  0.269152669  0.089635882


 
 k-points in units of 2pi/SCALE and weight: pymatgen with grid density = 8800 / numb
   0.00000000  0.00000000  0.00000000       0.001
   0.02070405  0.00000000  0.00000000       0.006
   0.04140810  0.00000000  0.00000000       0.006
   0.06211215  0.00000000  0.00000000       0.006
   0.08281621  0.00000000  0.00000000       0.006
   0.10352026  0.00000000  0.00000000       0.006
   0.12422431  0.00000000  0.00000000       0.006
   0.02070405  0.02070405  0.00000000       0.006
   0.04140810  0.02070405  0.00000000       0.012
   0.06211215  0.02070405  0.00000000       0.012
   0.08281621  0.02070405  0.00000000       0.012
   0.10352026  0.02070405  0.00000000       0.012
   0.12422431  0.02070405  0.00000000       0.012
   0.04140810  0.04140810  0.00000000       0.006
   0.06211215  0.04140810  0.00000000       0.012
   0.08281621  0.04140810  0.00000000       0.012
   0.10352026  0.04140810  0.00000000       0.012
   0.12422431  0.04140810  0.00000000       0.012
   0.06211215  0.06211215  0.00000000       0.006
   0.08281621  0.06211215  0.00000000       0.012
   0.10352026  0.06211215  0.00000000       0.012
   0.12422431  0.06211215  0.00000000       0.012
   0.08281621  0.08281621  0.00000000       0.006
   0.10352026  0.08281621  0.00000000       0.012
   0.12422431  0.08281621  0.00000000       0.012
   0.10352026  0.10352026  0.00000000       0.006
   0.12422431  0.10352026  0.00000000       0.012
   0.12422431  0.12422431  0.00000000       0.006
   0.00000000  0.00000000  0.02240897       0.003
   0.02070405  0.00000000  0.02240897       0.012
   0.04140810  0.00000000  0.02240897       0.012
   0.06211215  0.00000000  0.02240897       0.012
   0.08281621  0.00000000  0.02240897       0.012
   0.10352026  0.00000000  0.02240897       0.012
   0.12422431  0.00000000  0.02240897       0.012
   0.02070405  0.02070405  0.02240897       0.012
   0.04140810  0.02070405  0.02240897       0.024
   0.06211215  0.02070405  0.02240897       0.024
   0.08281621  0.02070405  0.02240897       0.024
   0.10352026  0.02070405  0.02240897       0.024
   0.12422431  0.02070405  0.02240897       0.024
   0.04140810  0.04140810  0.02240897       0.012
   0.06211215  0.04140810  0.02240897       0.024
   0.08281621  0.04140810  0.02240897       0.024
   0.10352026  0.04140810  0.02240897       0.024
   0.12422431  0.04140810  0.02240897       0.024
   0.06211215  0.06211215  0.02240897       0.012
   0.08281621  0.06211215  0.02240897       0.024
   0.10352026  0.06211215  0.02240897       0.024
   0.12422431  0.06211215  0.02240897       0.024
   0.08281621  0.08281621  0.02240897       0.012
   0.10352026  0.08281621  0.02240897       0.024
   0.12422431  0.08281621  0.02240897       0.024
   0.10352026  0.10352026  0.02240897       0.012
   0.12422431  0.10352026  0.02240897       0.024
   0.12422431  0.12422431  0.02240897       0.012
   0.00000000  0.00000000  0.04481794       0.001
   0.02070405  0.00000000  0.04481794       0.006
   0.04140810  0.00000000  0.04481794       0.006
   0.06211215  0.00000000  0.04481794       0.006
   0.08281621  0.00000000  0.04481794       0.006
   0.10352026  0.00000000  0.04481794       0.006
   0.12422431  0.00000000  0.04481794       0.006
   0.02070405  0.02070405  0.04481794       0.006
   0.04140810  0.02070405  0.04481794       0.012
   0.06211215  0.02070405  0.04481794       0.012
   0.08281621  0.02070405  0.04481794       0.012
   0.10352026  0.02070405  0.04481794       0.012
   0.12422431  0.02070405  0.04481794       0.012
   0.04140810  0.04140810  0.04481794       0.006
   0.06211215  0.04140810  0.04481794       0.012
   0.08281621  0.04140810  0.04481794       0.012
   0.10352026  0.04140810  0.04481794       0.012
   0.12422431  0.04140810  0.04481794       0.012
   0.06211215  0.06211215  0.04481794       0.006
   0.08281621  0.06211215  0.04481794       0.012
   0.10352026  0.06211215  0.04481794       0.012
   0.12422431  0.06211215  0.04481794       0.012
   0.08281621  0.08281621  0.04481794       0.006
   0.10352026  0.08281621  0.04481794       0.012
   0.12422431  0.08281621  0.04481794       0.012
   0.10352026  0.10352026  0.04481794       0.006
   0.12422431  0.10352026  0.04481794       0.012
   0.12422431  0.12422431  0.04481794       0.006
 
 k-points in reciprocal lattice and weights: pymatgen with grid density = 8800 / numb
   0.00000000  0.00000000  0.00000000       0.001
   0.07692308  0.00000000  0.00000000       0.006
   0.15384615  0.00000000  0.00000000       0.006
   0.23076923  0.00000000  0.00000000       0.006
   0.30769231  0.00000000  0.00000000       0.006
   0.38461538  0.00000000  0.00000000       0.006
   0.46153846  0.00000000  0.00000000       0.006
   0.07692308  0.07692308  0.00000000       0.006
   0.15384615  0.07692308  0.00000000       0.012
   0.23076923  0.07692308  0.00000000       0.012
   0.30769231  0.07692308  0.00000000       0.012
   0.38461538  0.07692308  0.00000000       0.012
   0.46153846  0.07692308  0.00000000       0.012
   0.15384615  0.15384615  0.00000000       0.006
   0.23076923  0.15384615  0.00000000       0.012
   0.30769231  0.15384615  0.00000000       0.012
   0.38461538  0.15384615  0.00000000       0.012
   0.46153846  0.15384615  0.00000000       0.012
   0.23076923  0.23076923  0.00000000       0.006
   0.30769231  0.23076923  0.00000000       0.012
   0.38461538  0.23076923  0.00000000       0.012
   0.46153846  0.23076923  0.00000000       0.012
   0.30769231  0.30769231  0.00000000       0.006
   0.38461538  0.30769231  0.00000000       0.012
   0.46153846  0.30769231  0.00000000       0.012
   0.38461538  0.38461538  0.00000000       0.006
   0.46153846  0.38461538  0.00000000       0.012
   0.46153846  0.46153846  0.00000000       0.006
   0.00000000  0.00000000  0.25000000       0.003
   0.07692308  0.00000000  0.25000000       0.012
   0.15384615  0.00000000  0.25000000       0.012
   0.23076923  0.00000000  0.25000000       0.012
   0.30769231  0.00000000  0.25000000       0.012
   0.38461538  0.00000000  0.25000000       0.012
   0.46153846  0.00000000  0.25000000       0.012
   0.07692308  0.07692308  0.25000000       0.012
   0.15384615  0.07692308  0.25000000       0.024
   0.23076923  0.07692308  0.25000000       0.024
   0.30769231  0.07692308  0.25000000       0.024
   0.38461538  0.07692308  0.25000000       0.024
   0.46153846  0.07692308  0.25000000       0.024
   0.15384615  0.15384615  0.25000000       0.012
   0.23076923  0.15384615  0.25000000       0.024
   0.30769231  0.15384615  0.25000000       0.024
   0.38461538  0.15384615  0.25000000       0.024
   0.46153846  0.15384615  0.25000000       0.024
   0.23076923  0.23076923  0.25000000       0.012
   0.30769231  0.23076923  0.25000000       0.024
   0.38461538  0.23076923  0.25000000       0.024
   0.46153846  0.23076923  0.25000000       0.024
   0.30769231  0.30769231  0.25000000       0.012
   0.38461538  0.30769231  0.25000000       0.024
   0.46153846  0.30769231  0.25000000       0.024
   0.38461538  0.38461538  0.25000000       0.012
   0.46153846  0.38461538  0.25000000       0.024
   0.46153846  0.46153846  0.25000000       0.012
   0.00000000  0.00000000  0.50000000       0.001
   0.07692308  0.00000000  0.50000000       0.006
   0.15384615  0.00000000  0.50000000       0.006
   0.23076923  0.00000000  0.50000000       0.006
   0.30769231  0.00000000  0.50000000       0.006
   0.38461538  0.00000000  0.50000000       0.006
   0.46153846  0.00000000  0.50000000       0.006
   0.07692308  0.07692308  0.50000000       0.006
   0.15384615  0.07692308  0.50000000       0.012
   0.23076923  0.07692308  0.50000000       0.012
   0.30769231  0.07692308  0.50000000       0.012
   0.38461538  0.07692308  0.50000000       0.012
   0.46153846  0.07692308  0.50000000       0.012
   0.15384615  0.15384615  0.50000000       0.006
   0.23076923  0.15384615  0.50000000       0.012
   0.30769231  0.15384615  0.50000000       0.012
   0.38461538  0.15384615  0.50000000       0.012
   0.46153846  0.15384615  0.50000000       0.012
   0.23076923  0.23076923  0.50000000       0.006
   0.30769231  0.23076923  0.50000000       0.012
   0.38461538  0.23076923  0.50000000       0.012
   0.46153846  0.23076923  0.50000000       0.012
   0.30769231  0.30769231  0.50000000       0.006
   0.38461538  0.30769231  0.50000000       0.012
   0.46153846  0.30769231  0.50000000       0.012
   0.38461538  0.38461538  0.50000000       0.006
   0.46153846  0.38461538  0.50000000       0.012
   0.46153846  0.46153846  0.50000000       0.006
 
 position of ions in fractional coordinates (direct lattice) 
   0.00000000  0.50000000  0.16661120
   0.00000000  0.50000000  0.50000000
   0.00000000  0.50000000  0.83338880
   0.50000000  0.50000000  0.00000000
   0.50000000  0.50000000  0.33326141
   0.50000000  0.50000000  0.66673859
   0.50000000  0.00000000  0.16661120
   0.50000000  0.00000000  0.50000000
   0.50000000  0.00000000  0.83338880
   0.00000000  0.00000000  0.00000000
   0.00000000  0.00000000  0.33332450
   0.00000000  0.00000000  0.66667550
 
 position of ions in cartesian coordinates  (Angst):
   0.00000000  1.85768174  1.85875567
   0.00000000  1.85768174  5.57812326
   0.00000000  1.85768174  9.29749086
   1.85768174  1.85768174  0.00000000
   1.85768174  1.85768174  3.71794645
   1.85768174  1.85768174  7.43830008
   1.85768174  0.00000000  1.85875567
   1.85768174  0.00000000  5.57812326
   1.85768174  0.00000000  9.29749086
   0.00000000  0.00000000  0.00000000
   0.00000000  0.00000000  3.71865035
   0.00000000  0.00000000  7.43759618
 


--------------------------------------------------------------------------------------------------------


 k-point     1 :   0.0000 0.0000 0.0000  plane waves:    4089
 k-point     2 :   0.0769 0.0000 0.0000  plane waves:    4117
 k-point     3 :   0.1538 0.0000 0.0000  plane waves:    4114
 k-point     4 :   0.2308 0.0000 0.0000  plane waves:    4134
 k-point     5 :   0.3077 0.0000 0.0000  plane waves:    4130
 k-point     6 :   0.3846 0.0000 0.0000  plane waves:    4146
 k-point     7 :   0.4615 0.0000 0.0000  plane waves:    4168
 k-point     8 :   0.0769 0.0769 0.0000  plane waves:    4109
 k-point     9 :   0.1538 0.0769 0.0000  plane waves:    4124
 k-point    10 :   0.2308 0.0769 0.0000  plane waves:    4142
 k-point    11 :   0.3077 0.0769 0.0000  plane waves:    4124
 k-point    12 :   0.3846 0.0769 0.0000  plane waves:    4137
 k-point    13 :   0.4615 0.0769 0.0000  plane waves:    4148
 k-point    14 :   0.1538 0.1538 0.0000  plane waves:    4120
 k-point    15 :   0.2308 0.1538 0.0000  plane waves:    4145
 k-point    16 :   0.3077 0.1538 0.0000  plane waves:    4149
 k-point    17 :   0.3846 0.1538 0.0000  plane waves:    4153
 k-point    18 :   0.4615 0.1538 0.0000  plane waves:    4155
 k-point    19 :   0.2308 0.2308 0.0000  plane waves:    4152
 k-point    20 :   0.3077 0.2308 0.0000  plane waves:    4162
 k-point    21 :   0.3846 0.2308 0.0000  plane waves:    4151
 k-point    22 :   0.4615 0.2308 0.0000  plane waves:    4148
 k-point    23 :   0.3077 0.3077 0.0000  plane waves:    4172
 k-point    24 :   0.3846 0.3077 0.0000  plane waves:    4165
 k-point    25 :   0.4615 0.3077 0.0000  plane waves:    4171
 k-point    26 :   0.3846 0.3846 0.0000  plane waves:    4162
 k-point    27 :   0.4615 0.3846 0.0000  plane waves:    4167
 k-point    28 :   0.4615 0.4615 0.0000  plane waves:    4146
 k-point    29 :   0.0000 0.0000 0.2500  plane waves:    4145
 k-point    30 :   0.0769 0.0000 0.2500  plane waves:    4129
 k-point    31 :   0.1538 0.0000 0.2500  plane waves:    4129
 k-point    32 :   0.2308 0.0000 0.2500  plane waves:    4129
 k-point    33 :   0.3077 0.0000 0.2500  plane waves:    4143
 k-point    34 :   0.3846 0.0000 0.2500  plane waves:    4134
 k-point    35 :   0.4615 0.0000 0.2500  plane waves:    4148
 k-point    36 :   0.0769 0.0769 0.2500  plane waves:    4127
 k-point    37 :   0.1538 0.0769 0.2500  plane waves:    4126
 k-point    38 :   0.2308 0.0769 0.2500  plane waves:    4135
 k-point    39 :   0.3077 0.0769 0.2500  plane waves:    4126
 k-point    40 :   0.3846 0.0769 0.2500  plane waves:    4140
 k-point    41 :   0.4615 0.0769 0.2500  plane waves:    4153
 k-point    42 :   0.1538 0.1538 0.2500  plane waves:    4132
 k-point    43 :   0.2308 0.1538 0.2500  plane waves:    4139
 k-point    44 :   0.3077 0.1538 0.2500  plane waves:    4144
 k-point    45 :   0.3846 0.1538 0.2500  plane waves:    4147
 k-point    46 :   0.4615 0.1538 0.2500  plane waves:    4157
 k-point    47 :   0.2308 0.2308 0.2500  plane waves:    4153
 k-point    48 :   0.3077 0.2308 0.2500  plane waves:    4153
 k-point    49 :   0.3846 0.2308 0.2500  plane waves:    4164
 k-point    50 :   0.4615 0.2308 0.2500  plane waves:    4154
 k-point    51 :   0.3077 0.3077 0.2500  plane waves:    4167
 k-point    52 :   0.3846 0.3077 0.2500  plane waves:    4158
 k-point    53 :   0.4615 0.3077 0.2500  plane waves:    4160
 k-point    54 :   0.3846 0.3846 0.2500  plane waves:    4164
 k-point    55 :   0.4615 0.3846 0.2500  plane waves:    4161
 k-point    56 :   0.4615 0.4615 0.2500  plane waves:    4154
 k-point    57 :   0.0000 0.0000 0.5000  plane waves:    4138
 k-point    58 :   0.0769 0.0000 0.5000  plane waves:    4140
 k-point    59 :   0.1538 0.0000 0.5000  plane waves:    4134
 k-point    60 :   0.2308 0.0000 0.5000  plane waves:    4142
 k-point    61 :   0.3077 0.0000 0.5000  plane waves:    4136
 k-point    62 :   0.3846 0.0000 0.5000  plane waves:    4132
 k-point    63 :   0.4615 0.0000 0.5000  plane waves:    4138
 k-point    64 :   0.0769 0.0769 0.5000  plane waves:    4146
 k-point    65 :   0.1538 0.0769 0.5000  plane waves:    4126
 k-point    66 :   0.2308 0.0769 0.5000  plane waves:    4134
 k-point    67 :   0.3077 0.0769 0.5000  plane waves:    4134
 k-point    68 :   0.3846 0.0769 0.5000  plane waves:    4136
 k-point    69 :   0.4615 0.0769 0.5000  plane waves:    4156
 k-point    70 :   0.1538 0.1538 0.5000  plane waves:    4138
 k-point    71 :   0.2308 0.1538 0.5000  plane waves:    4136
 k-point    72 :   0.3077 0.1538 0.5000  plane waves:    4136
 k-point    73 :   0.3846 0.1538 0.5000  plane waves:    4154
 k-point    74 :   0.4615 0.1538 0.5000  plane waves:    4158
 k-point    75 :   0.2308 0.2308 0.5000  plane waves:    4132
 k-point    76 :   0.3077 0.2308 0.5000  plane waves:    4156
 k-point    77 :   0.3846 0.2308 0.5000  plane waves:    4164
 k-point    78 :   0.4615 0.2308 0.5000  plane waves:    4156
 k-point    79 :   0.3077 0.3077 0.5000  plane waves:    4162
 k-point    80 :   0.3846 0.3077 0.5000  plane waves:    4172
 k-point    81 :   0.4615 0.3077 0.5000  plane waves:    4160
 k-point    82 :   0.3846 0.3846 0.5000  plane waves:    4158
 k-point    83 :   0.4615 0.3846 0.5000  plane waves:    4168
 k-point    84 :   0.4615 0.4615 0.5000  plane waves:    4158

 maximum and minimum number of plane-waves per node :      4172     4089

 maximum number of plane-waves:      4172
 maximum index in each direction: 
   IXMAX=    6   IYMAX=    6   IZMAX=   20
   IXMIN=   -7   IYMIN=   -7   IZMIN=  -21


 serial   3D FFT for wavefunctions
 parallel 3D FFT for charge:
    minimum data exchange during FFTs selected (reduces bandwidth)


 total amount of memory used by VASP MPI-rank0   187771. kBytes
=======================================================================

   base      :      30000. kBytes
   nonl-proj :     102217. kBytes
   fftplans  :        888. kBytes
   grid      :       6813. kBytes
   one-center:        373. kBytes
   wavefun   :      47480. kBytes
 
     INWAV:  cpu time      0.0000: real time      0.0000
 Broyden mixing: mesh for mixing (old mesh)
   NGX = 13   NGY = 13   NGZ = 41
  (NGX  = 56   NGY  = 56   NGZ  =168)
  gives a total of   6929 points

 initial charge density was supplied:
 charge density of overlapping atoms calculated
 number of electron     156.0000000 magnetization      25.3080000
 keeping initial charge density in first step


--------------------------------------------------------------------------------------------------------


 Maximum index for augmentation-charges         1041 (set IRDMAX)


--------------------------------------------------------------------------------------------------------


 First call to EWALD:  gamma=   0.331
 Maximum number of real-space cells 4x 4x 2
 Maximum number of reciprocal cells 2x 2x 5

    FEWALD:  cpu time      0.0024: real time      0.0024


--------------------------------------- Ionic step        1  -------------------------------------------




--------------------------------------- Iteration      1(   1)  ---------------------------------------


    POTLOK:  cpu time      0.0294: real time      0.0378
    SETDIJ:  cpu time      0.0124: real time      0.0128
     EDDAV:  cpu time      5.8359: real time      5.8804
 BZINTS: Fermi energy:   23.410794;  156.000000 electrons
         Band energy: 0.551646E+03;  BLOECHL correction:   -0.059771
       DOS:  cpu time      0.1249: real time      0.1261
    --------------------------------------------
      LOOP:  cpu time      6.0027: real time      6.0571

 eigenvalue-minimisations  : 43008
 total energy-change (2. order) : 0.1772206E+04  (-0.8426731E+04)
 number of electron     156.0000000 magnetization      25.3080000
 augmentation part      156.0000000 magnetization      25.3080000

 Free energy of the ion-electron system (eV)
  ---------------------------------------------------
  alpha Z        PSCENC =      1105.13071145
  Ewald energy   TEWEN  =    -18170.29582240
  -Hartree energ DENC   =     -5952.32975540
  -exchange      EXHF   =         0.00000000
  -V(xc)+E(xc)   XCENC  =       657.87260207
  PAW double counting   =     20093.89496815   -20817.81551484
  entropy T*S    EENTRO =         0.00000000
  eigenvalues    EBANDS =       551.64612358
  atomic energy  EATOM  =     24304.10294433
  Solvation  Ediel_sol  =         0.00000000
  ---------------------------------------------------
  free energy    TOTEN  =      1772.20625694 eV

  energy without entropy =     1772.20625694  energy(sigma->0) =     1772.20625694


--------------------------------------------------------------------------------------------------------




--------------------------------------- Iteration      1(   2)  ---------------------------------------


     EDDAV:  cpu time      5.8202: real time      5.8685
 BZINTS: Fermi energy:   12.327639;  156.000000 electrons
         Band energy:-0.121385E+04;  BLOECHL correction:   -0.030563
       DOS:  cpu time      0.1291: real time      0.1300
    --------------------------------------------
      LOOP:  cpu time      5.9493: real time      5.9986

 eigenvalue-minimisations  : 43040
 total energy-change (2. order) :-0.1765492E+04  (-0.1672774E+04)
 number of electron     156.0000000 magnetization      25.3080000
 augmentation part      156.0000000 magnetization      25.3080000

 Free energy of the ion-electron system (eV)
  ---------------------------------------------------
  alpha Z        PSCENC =      1105.13071145
  Ewald energy   TEWEN  =    -18170.29582240
  -Hartree energ DENC   =     -5952.32975540
  -exchange      EXHF   =         0.00000000
  -V(xc)+E(xc)   XCENC  =       657.87260207
  PAW double counting   =     20093.89496815   -20817.81551484
  entropy T*S    EENTRO =         0.00000000
  eigenvalues    EBANDS =     -1213.84606976
  atomic energy  EATOM  =     24304.10294433
  Solvation  Ediel_sol  =         0.00000000
  ---------------------------------------------------
  free energy    TOTEN  =         6.71406360 eV

  energy without entropy =        6.71406360  energy(sigma->0) =        6.71406360


--------------------------------------------------------------------------------------------------------




--------------------------------------- Iteration      1(   3)  ---------------------------------------


     EDDAV:  cpu time      6.9405: real time      6.9938
 BZINTS: Fermi energy:   11.702243;  156.000000 electrons
         Band energy:-0.132316E+04;  BLOECHL correction:   -0.057342
       DOS:  cpu time      0.1283: real time      0.1293
    --------------------------------------------
      LOOP:  cpu time      7.0688: real time      7.1231

 eigenvalue-minimisations  : 50464
 total energy-change (2. order) :-0.1093172E+03  (-0.1076537E+03)
 number of electron     156.0000000 magnetization      25.3080000
 augmentation part      156.0000000 magnetization      25.3080000

 Free energy of the ion-electron system (eV)
  ---------------------------------------------------
  alpha Z        PSCENC =      1105.13071145
  Ewald energy   TEWEN  =    -18170.29582240
  -Hartree energ DENC   =     -5952.32975540
  -exchange      EXHF   =         0.00000000
  -V(xc)+E(xc)   XCENC  =       657.87260207
  PAW double counting   =     20093.89496815   -20817.81551484
  entropy T*S    EENTRO =         0.00000000
  eigenvalues    EBANDS =     -1323.16327642
  atomic energy  EATOM  =     24304.10294433
  Solvation  Ediel_sol  =         0.00000000
  ---------------------------------------------------
  free energy    TOTEN  =      -102.60314306 eV

  energy without entropy =     -102.60314306  energy(sigma->0) =     -102.60314306


--------------------------------------------------------------------------------------------------------




--------------------------------------- Iteration      1(   4)  ---------------------------------------


     EDDAV:  cpu time      6.2520: real time      6.3021
 BZINTS: Fermi energy:   11.697414;  156.000000 electrons
         Band energy:-0.132475E+04;  BLOECHL correction:   -0.057534
       DOS:  cpu time      0.1274: real time      0.1286
    --------------------------------------------
      LOOP:  cpu time      6.3794: real time      6.4307

 eigenvalue-minimisations  : 45888
 total energy-change (2. order) :-0.1582612E+01  (-0.1582140E+01)
 number of electron     156.0000000 magnetization      25.3080000
 augmentation part      156.0000000 magnetization      25.3080000

 Free energy of the ion-electron system (eV)
  ---------------------------------------------------
  alpha Z        PSCENC =      1105.13071145
  Ewald energy   TEWEN  =    -18170.29582240
  -Hartree energ DENC   =     -5952.32975540
  -exchange      EXHF   =         0.00000000
  -V(xc)+E(xc)   XCENC  =       657.87260207
  PAW double counting   =     20093.89496815   -20817.81551484
  entropy T*S    EENTRO =         0.00000000
  eigenvalues    EBANDS =     -1324.74588837
  atomic energy  EATOM  =     24304.10294433
  Solvation  Ediel_sol  =         0.00000000
  ---------------------------------------------------
  free energy    TOTEN  =      -104.18575502 eV

  energy without entropy =     -104.18575502  energy(sigma->0) =     -104.18575502


--------------------------------------------------------------------------------------------------------




--------------------------------------- Iteration      1(   5)  ---------------------------------------


     EDDAV:  cpu time      7.2866: real time      7.3409
 BZINTS: Fermi energy:   11.697370;  156.000000 electrons
         Band energy:-0.132478E+04;  BLOECHL correction:   -0.057534
       DOS:  cpu time      0.1321: real time      0.1331
    CHARGE:  cpu time      0.1499: real time      0.1511
    MIXING:  cpu time      0.0066: real time      0.0066
    --------------------------------------------
      LOOP:  cpu time      7.5751: real time      7.6317

 eigenvalue-minimisations  : 52608
 total energy-change (2. order) :-0.3024549E-01  (-0.3024434E-01)
 number of electron     156.0000345 magnetization      23.7906886
 augmentation part       79.4055246 magnetization      17.6254426

 Broyden mixing:
  rms(total) = 0.38924E+01    rms(broyden)= 0.38915E+01
  rms(prec ) = 0.43518E+01
  weight for this iteration     100.00

 Free energy of the ion-electron system (eV)
  ---------------------------------------------------
  alpha Z        PSCENC =      1105.13071145
  Ewald energy   TEWEN  =    -18170.29582240
  -Hartree energ DENC   =     -5952.32975540
  -exchange      EXHF   =         0.00000000
  -V(xc)+E(xc)   XCENC  =       657.87260207
  PAW double counting   =     20093.89496815   -20817.81551484
  entropy T*S    EENTRO =         0.00000000
  eigenvalues    EBANDS =     -1324.77613387
  atomic energy  EATOM  =     24304.10294433
  Solvation  Ediel_sol  =         0.00000000
  ---------------------------------------------------
  free energy    TOTEN  =      -104.21600051 eV

  energy without entropy =     -104.21600051  energy(sigma->0) =     -104.21600051


--------------------------------------------------------------------------------------------------------




--------------------------------------- Iteration      1(   6)  ---------------------------------------


    POTLOK:  cpu time      0.0432: real time      0.0441
    SETDIJ:  cpu time      0.0082: real time      0.0083
     EDDAV:  cpu time      6.5430: real time      6.5892
 BZINTS: Fermi energy:    9.110939;  156.000000 electrons
         Band energy:-0.173455E+04;  BLOECHL correction:   -0.072307
       DOS:  cpu time      0.1389: real time      0.1398
    CHARGE:  cpu time      0.1492: real time      0.1500
    MIXING:  cpu time      0.0045: real time      0.0045
    --------------------------------------------
      LOOP:  cpu time      6.8870: real time      6.9358

 eigenvalue-minimisations  : 48576
 total energy-change (2. order) : 0.3634753E+01  (-0.6312592E+01)
 number of electron     156.0000380 magnetization      23.1579139
 augmentation part       87.9391803 magnetization      17.8499782

 Broyden mixing:
  rms(total) = 0.34602E+01    rms(broyden)= 0.34597E+01
  rms(prec ) = 0.42157E+01
  weight for this iteration     100.00

 eigenvalues of (default mixing * dielectric matrix)
  average eigenvalue GAMMA=   0.4525
  0.4525

 Free energy of the ion-electron system (eV)
  ---------------------------------------------------
  alpha Z        PSCENC =      1105.13071145
  Ewald energy   TEWEN  =    -18170.29582240
  -Hartree energ DENC   =     -5543.78393174
  -exchange      EXHF   =         0.00000000
  -V(xc)+E(xc)   XCENC  =       640.32913432
  PAW double counting   =     20497.14796781   -21198.66188423
  entropy T*S    EENTRO =         0.00000000
  eigenvalues    EBANDS =     -1734.55036672
  atomic energy  EATOM  =     24304.10294433
  Solvation  Ediel_sol  =         0.00000000
  ---------------------------------------------------
  free energy    TOTEN  =      -100.58124718 eV

  energy without entropy =     -100.58124718  energy(sigma->0) =     -100.58124718


--------------------------------------------------------------------------------------------------------




--------------------------------------- Iteration      1(   7)  ---------------------------------------


    POTLOK:  cpu time      0.0382: real time      0.0444
    SETDIJ:  cpu time      0.0084: real time      0.0085
     EDDAV:  cpu time      6.8657: real time      6.9121
 BZINTS: Fermi energy:   10.280856;  156.000000 electrons
         Band energy:-0.154669E+04;  BLOECHL correction:   -0.046376
       DOS:  cpu time      0.1444: real time      0.1453
    CHARGE:  cpu time      0.1477: real time      0.1485
    MIXING:  cpu time      0.0029: real time      0.0030
    --------------------------------------------
      LOOP:  cpu time      7.2073: real time      7.2618

 eigenvalue-minimisations  : 49856
 total energy-change (2. order) : 0.4714565E+01  (-0.8204901E+01)
 number of electron     156.0000354 magnetization      23.0445647
 augmentation part       83.6255539 magnetization      16.6342939

 Broyden mixing:
  rms(total) = 0.20901E+01    rms(broyden)= 0.20898E+01
  rms(prec ) = 0.23892E+01
  weight for this iteration     100.00

 eigenvalues of (default mixing * dielectric matrix)
  average eigenvalue GAMMA=   0.6475
  0.9682  0.3267

 Free energy of the ion-electron system (eV)
  ---------------------------------------------------
  alpha Z        PSCENC =      1105.13071145
  Ewald energy   TEWEN  =    -18170.29582240
  -Hartree energ DENC   =     -5699.50371350
  -exchange      EXHF   =         0.00000000
  -V(xc)+E(xc)   XCENC  =       645.73520549
  PAW double counting   =     21126.81887990   -21861.16837114
  entropy T*S    EENTRO =         0.00000000
  eigenvalues    EBANDS =     -1546.68651663
  atomic energy  EATOM  =     24304.10294433
  Solvation  Ediel_sol  =         0.00000000
  ---------------------------------------------------
  free energy    TOTEN  =       -95.86668250 eV

  energy without entropy =      -95.86668250  energy(sigma->0) =      -95.86668250


--------------------------------------------------------------------------------------------------------




--------------------------------------- Iteration      1(   8)  ---------------------------------------


    POTLOK:  cpu time      0.0385: real time      0.0448
    SETDIJ:  cpu time      0.0073: real time      0.0073
     EDDAV:  cpu time      6.8389: real time      6.8862
 BZINTS: Fermi energy:    9.958639;  156.000000 electrons
         Band energy:-0.158755E+04;  BLOECHL correction:   -0.046747
       DOS:  cpu time      0.1414: real time      0.1423
    CHARGE:  cpu time      0.1449: real time      0.1462
    MIXING:  cpu time      0.0017: real time      0.0017
    --------------------------------------------
      LOOP:  cpu time      7.1726: real time      7.2285

 eigenvalue-minimisations  : 49952
 total energy-change (2. order) : 0.1736276E+01  (-0.5293277E+00)
 number of electron     156.0000358 magnetization      23.2871184
 augmentation part       84.6593451 magnetization      17.1878968

 Broyden mixing:
  rms(total) = 0.11435E+01    rms(broyden)= 0.11433E+01
  rms(prec ) = 0.15687E+01
  weight for this iteration     100.00

 eigenvalues of (default mixing * dielectric matrix)
  average eigenvalue GAMMA=   0.7057
  0.3628  1.0328  0.7215

 Free energy of the ion-electron system (eV)
  ---------------------------------------------------
  alpha Z        PSCENC =      1105.13071145
  Ewald energy   TEWEN  =    -18170.29582240
  -Hartree energ DENC   =     -5647.35645488
  -exchange      EXHF   =         0.00000000
  -V(xc)+E(xc)   XCENC  =       645.38699961
  PAW double counting   =     21569.08834739   -22312.63388528
  entropy T*S    EENTRO =         0.00000000
  eigenvalues    EBANDS =     -1587.55324691
  atomic energy  EATOM  =     24304.10294433
  Solvation  Ediel_sol  =         0.00000000
  ---------------------------------------------------
  free energy    TOTEN  =       -94.13040667 eV

  energy without entropy =      -94.13040667  energy(sigma->0) =      -94.13040667


--------------------------------------------------------------------------------------------------------




--------------------------------------- Iteration      1(   9)  ---------------------------------------


    POTLOK:  cpu time      0.0374: real time      0.0439
    SETDIJ:  cpu time      0.0080: real time      0.0081
     EDDAV:  cpu time      7.2231: real time      7.2708
 BZINTS: Fermi energy:    9.991931;  156.000000 electrons
         Band energy:-0.159662E+04;  BLOECHL correction:   -0.031162
       DOS:  cpu time      0.1402: real time      0.1412
    CHARGE:  cpu time      0.1459: real time      0.1467
    MIXING:  cpu time      0.0018: real time      0.0018
    --------------------------------------------
      LOOP:  cpu time      7.5564: real time      7.6125

 eigenvalue-minimisations  : 52256
 total energy-change (2. order) :-0.1270157E+01  (-0.1604664E+01)
 number of electron     156.0000362 magnetization      23.7334887
 augmentation part       84.8116753 magnetization      17.8877005

 Broyden mixing:
  rms(total) = 0.20334E+01    rms(broyden)= 0.20332E+01
  rms(prec ) = 0.32351E+01
  weight for this iteration     100.00

 eigenvalues of (default mixing * dielectric matrix)
  average eigenvalue GAMMA=   0.7179
  1.5103  0.8874  0.3504  0.1234

 Free energy of the ion-electron system (eV)
  ---------------------------------------------------
  alpha Z        PSCENC =      1105.13071145
  Ewald energy   TEWEN  =    -18170.29582240
  -Hartree energ DENC   =     -5636.50895882
  -exchange      EXHF   =         0.00000000
  -V(xc)+E(xc)   XCENC  =       645.57584753
  PAW double counting   =     21706.24415394   -22453.03164486
  entropy T*S    EENTRO =         0.00000000
  eigenvalues    EBANDS =     -1596.61779512
  atomic energy  EATOM  =     24304.10294433
  Solvation  Ediel_sol  =         0.00000000
  ---------------------------------------------------
  free energy    TOTEN  =       -95.40056394 eV

  energy without entropy =      -95.40056394  energy(sigma->0) =      -95.40056394


--------------------------------------------------------------------------------------------------------




--------------------------------------- Iteration      1(  10)  ---------------------------------------


    POTLOK:  cpu time      0.0388: real time      0.0441
    SETDIJ:  cpu time      0.0082: real time      0.0083
     EDDAV:  cpu time      7.1964: real time      7.2457
 BZINTS: Fermi energy:    9.850037;  156.000000 electrons
         Band energy:-0.160696E+04;  BLOECHL correction:   -0.056556
       DOS:  cpu time      0.1404: real time      0.1420
    CHARGE:  cpu time      0.1478: real time      0.1486
    MIXING:  cpu time      0.0018: real time      0.0019
    --------------------------------------------
      LOOP:  cpu time      7.5335: real time      7.5906

 eigenvalue-minimisations  : 52384
 total energy-change (2. order) : 0.1795732E+01  (-0.9701318E+00)
 number of electron     156.0000361 magnetization      23.9508562
 augmentation part       85.0709003 magnetization      18.2676915

 Broyden mixing:
  rms(total) = 0.68645E+00    rms(broyden)= 0.68611E+00
  rms(prec ) = 0.85133E+00
  weight for this iteration     100.00

 eigenvalues of (default mixing * dielectric matrix)
  average eigenvalue GAMMA=   0.7076
  1.7265  0.8603  0.4216  0.4076  0.1220

 Free energy of the ion-electron system (eV)
  ---------------------------------------------------
  alpha Z        PSCENC =      1105.13071145
  Ewald energy   TEWEN  =    -18170.29582240
  -Hartree energ DENC   =     -5617.57085008
  -exchange      EXHF   =         0.00000000
  -V(xc)+E(xc)   XCENC  =       645.83191722
  PAW double counting   =     21993.47961162   -22747.32396082
  entropy T*S    EENTRO =         0.00000000
  eigenvalues    EBANDS =     -1606.95938278
  atomic energy  EATOM  =     24304.10294433
  Solvation  Ediel_sol  =         0.00000000
  ---------------------------------------------------
  free energy    TOTEN  =       -93.60483145 eV

  energy without entropy =      -93.60483145  energy(sigma->0) =      -93.60483145


--------------------------------------------------------------------------------------------------------




--------------------------------------- Iteration      1(  11)  ---------------------------------------


    POTLOK:  cpu time      0.0393: real time      0.0452
    SETDIJ:  cpu time      0.0068: real time      0.0068
     EDDAV:  cpu time      7.0036: real time      7.0504
 BZINTS: Fermi energy:    9.874101;  156.000000 electrons
         Band energy:-0.160564E+04;  BLOECHL correction:   -0.049733
       DOS:  cpu time      0.1402: real time      0.1411
    CHARGE:  cpu time      0.1702: real time      0.1710
    MIXING:  cpu time      0.0017: real time      0.0018
    --------------------------------------------
      LOOP:  cpu time      7.3618: real time      7.4163

 eigenvalue-minimisations  : 50880
 total energy-change (2. order) :-0.3333192E+00  (-0.3480434E+00)
 number of electron     156.0000361 magnetization      24.1784471
 augmentation part       85.0230024 magnetization      18.4997494

 Broyden mixing:
  rms(total) = 0.10963E+01    rms(broyden)= 0.10962E+01
  rms(prec ) = 0.14121E+01
  weight for this iteration     100.00

 eigenvalues of (default mixing * dielectric matrix)
  average eigenvalue GAMMA=   0.6594
  1.8678  0.7258  0.7258  0.3695  0.1219  0.1456

 Free energy of the ion-electron system (eV)
  ---------------------------------------------------
  alpha Z        PSCENC =      1105.13071145
  Ewald energy   TEWEN  =    -18170.29582240
  -Hartree energ DENC   =     -5616.30434020
  -exchange      EXHF   =         0.00000000
  -V(xc)+E(xc)   XCENC  =       645.88979670
  PAW double counting   =     22097.89257116   -22854.70912094
  entropy T*S    EENTRO =         0.00000000
  eigenvalues    EBANDS =     -1605.64489076
  atomic energy  EATOM  =     24304.10294433
  Solvation  Ediel_sol  =         0.00000000
  ---------------------------------------------------
  free energy    TOTEN  =       -93.93815066 eV

  energy without entropy =      -93.93815066  energy(sigma->0) =      -93.93815066


--------------------------------------------------------------------------------------------------------




--------------------------------------- Iteration      1(  12)  ---------------------------------------


    POTLOK:  cpu time      0.0392: real time      0.0454
    SETDIJ:  cpu time      0.0082: real time      0.0082
     EDDAV:  cpu time      6.9501: real time      6.9965
 BZINTS: Fermi energy:    9.878420;  156.000000 electrons
         Band energy:-0.160286E+04;  BLOECHL correction:   -0.058550
       DOS:  cpu time      0.1401: real time      0.1410
    CHARGE:  cpu time      0.1469: real time      0.1478
    MIXING:  cpu time      0.0019: real time      0.0019
    --------------------------------------------
      LOOP:  cpu time      7.2864: real time      7.3407

 eigenvalue-minimisations  : 50656
 total energy-change (2. order) : 0.4564501E+00  (-0.1649843E+00)
 number of electron     156.0000360 magnetization      24.7079737
 augmentation part       84.9650295 magnetization      18.9243803

 Broyden mixing:
  rms(total) = 0.22671E+00    rms(broyden)= 0.22656E+00
  rms(prec ) = 0.24137E+00
  weight for this iteration     100.00

 eigenvalues of (default mixing * dielectric matrix)
  average eigenvalue GAMMA=   0.8006
  2.3683  0.9585  0.9585  0.6804  0.3679  0.1200  0.1507

 Free energy of the ion-electron system (eV)
  ---------------------------------------------------
  alpha Z        PSCENC =      1105.13071145
  Ewald energy   TEWEN  =    -18170.29582240
  -Hartree energ DENC   =     -5615.52374607
  -exchange      EXHF   =         0.00000000
  -V(xc)+E(xc)   XCENC  =       645.83890385
  PAW double counting   =     22206.01398690   -22965.88394596
  entropy T*S    EENTRO =         0.00000000
  eigenvalues    EBANDS =     -1602.86473262
  atomic energy  EATOM  =     24304.10294433
  Solvation  Ediel_sol  =         0.00000000
  ---------------------------------------------------
  free energy    TOTEN  =       -93.48170053 eV

  energy without entropy =      -93.48170053  energy(sigma->0) =      -93.48170053


--------------------------------------------------------------------------------------------------------




--------------------------------------- Iteration      1(  13)  ---------------------------------------


    POTLOK:  cpu time      0.0380: real time      0.0438
    SETDIJ:  cpu time      0.0081: real time      0.0082
     EDDAV:  cpu time      6.8302: real time      6.8762
 BZINTS: Fermi energy:    9.873317;  156.000000 electrons
         Band energy:-0.160517E+04;  BLOECHL correction:   -0.058980
       DOS:  cpu time      0.1391: real time      0.1405
    CHARGE:  cpu time      0.1456: real time      0.1464
    MIXING:  cpu time      0.0018: real time      0.0019
    --------------------------------------------
      LOOP:  cpu time      7.1628: real time      7.2169

 eigenvalue-minimisations  : 49888
 total energy-change (2. order) :-0.2438175E-01  (-0.5762126E-02)
 number of electron     156.0000360 magnetization      24.8659222
 augmentation part       84.9930582 magnetization      18.9983721

 Broyden mixing:
  rms(total) = 0.12635E+00    rms(broyden)= 0.12632E+00
  rms(prec ) = 0.14842E+00
  weight for this iteration     100.00

 eigenvalues of (default mixing * dielectric matrix)
  average eigenvalue GAMMA=   0.8253
  2.4865  1.1048  1.1048  0.6605  0.6061  0.3692  0.1199  0.1504

 Free energy of the ion-electron system (eV)
  ---------------------------------------------------
  alpha Z        PSCENC =      1105.13071145
  Ewald energy   TEWEN  =    -18170.29582240
  -Hartree energ DENC   =     -5610.14026646
  -exchange      EXHF   =         0.00000000
  -V(xc)+E(xc)   XCENC  =       645.70055143
  PAW double counting   =     22348.10136654   -23110.93257683
  entropy T*S    EENTRO =         0.00000000
  eigenvalues    EBANDS =     -1605.17299033
  atomic energy  EATOM  =     24304.10294433
  Solvation  Ediel_sol  =         0.00000000
  ---------------------------------------------------
  free energy    TOTEN  =       -93.50608228 eV

  energy without entropy =      -93.50608228  energy(sigma->0) =      -93.50608228


--------------------------------------------------------------------------------------------------------




--------------------------------------- Iteration      1(  14)  ---------------------------------------


    POTLOK:  cpu time      0.0367: real time      0.0440
    SETDIJ:  cpu time      0.0085: real time      0.0086
     EDDAV:  cpu time      7.0070: real time      7.0552
[...]
    113      24.7887      0.00000
    114      25.2648      0.00000
    115      25.2658      0.00000
    116      25.6099      0.00000
    117      25.6114      0.00000
    118      26.4884      0.00000
    119      26.4901      0.00000
    120      27.4878      0.00000
    121      27.4927      0.00000
    122      27.5424      0.00000
    123      27.9453      0.00000
    124      28.9782      0.00000
    125      28.9784      0.00000
    126      29.3975      0.00000
    127      29.3977      0.00000
    128      30.0565      0.00000


--------------------------------------------------------------------------------------------------------


 soft charge-density along one line, spin component           1
         0         1         2         3         4         5         6         7         8         9
 total charge-density along one line
 
 soft charge-density along one line, spin component           2
         0         1         2         3         4         5         6         7         8         9
 total charge-density along one line
 
 pseudopotential strength for first ion, spin component:           1
-44.995  -0.000   0.000   7.624   0.000  -0.000  -0.000   0.000
 -0.000 -44.991   0.000   0.000   7.622  -0.000   0.000   0.000
  0.000   0.000 -44.889  -0.000  -0.000   7.580   0.000   0.000
  7.624   0.000  -0.000   5.631   0.000  -0.000   0.000  -0.000
  0.000   7.622  -0.000   0.000   5.631  -0.000  -0.000  -0.000
 -0.000  -0.000   7.580  -0.000  -0.000   5.639  -0.000  -0.000
 -0.000   0.000   0.000   0.000  -0.000  -0.000  -2.065   0.000
  0.000   0.000   0.000  -0.000  -0.000  -0.000   0.000  -2.144
 -0.000   0.000   0.000   0.000  -0.000  -0.000  -0.000  -0.000
  0.000  -0.000   0.000  -0.000   0.000  -0.000  -0.000   0.000
 -0.000  -0.000  -0.000   0.000   0.000   0.000  -0.000   0.000
 -0.000   0.000   0.000   0.000  -0.000  -0.000  -2.579   0.000
  0.000   0.000   0.000  -0.000  -0.000  -0.000   0.000  -2.656
 -0.000   0.000   0.000   0.000  -0.000  -0.000  -0.000  -0.000
  0.000  -0.000   0.000  -0.000   0.000  -0.000  -0.000   0.000
 -0.000  -0.000  -0.000   0.000   0.000   0.000  -0.000   0.000
 -0.000  -0.000   0.000  -0.000   0.000   0.000  -0.000   0.000
 -0.000  -0.000   0.000  -0.000   0.000   0.000  -0.000   0.000
 pseudopotential strength for first ion, spin component:           2
-42.654  -0.000   0.000   6.638   0.000  -0.000  -0.000   0.000
 -0.000 -42.652   0.000   0.000   6.638  -0.000  -0.000   0.000
  0.000   0.000 -42.610  -0.000  -0.000   6.619   0.000  -0.000
  6.638   0.000  -0.000   5.907   0.000  -0.000   0.000  -0.000
  0.000   6.638  -0.000   0.000   5.907  -0.000   0.000  -0.000
 -0.000  -0.000   6.619  -0.000  -0.000   5.911  -0.000   0.000
 -0.000  -0.000   0.000   0.000   0.000  -0.000  -0.214   0.000
  0.000   0.000  -0.000  -0.000  -0.000   0.000   0.000  -0.234
 -0.000   0.000   0.000   0.000  -0.000  -0.000  -0.000  -0.000
 -0.000  -0.000   0.000   0.000   0.000  -0.000  -0.000   0.000
 -0.000  -0.000  -0.000   0.000   0.000   0.000  -0.000   0.000
 -0.000  -0.000   0.000   0.000   0.000  -0.000  -0.758   0.000
  0.000   0.000  -0.000  -0.000  -0.000   0.000   0.000  -0.778
 -0.000   0.000   0.000   0.000  -0.000  -0.000  -0.000  -0.000
 -0.000  -0.000   0.000   0.000   0.000  -0.000  -0.000   0.000
 -0.000  -0.000  -0.000   0.000   0.000   0.000  -0.000   0.000
 -0.000  -0.000   0.000  -0.000  -0.000   0.000  -0.000   0.000
 -0.000  -0.000   0.000  -0.000  -0.000   0.000  -0.000   0.000
 total augmentation occupancy for first ion, spin component:           1
  1.992   0.000   0.000  -0.026   0.000   0.000   0.000   0.000  -0.000   0.000   0.000   0.000  -0.000  -0.000   0.000   0.000
  0.000   1.992   0.000  -0.000  -0.026  -0.000   0.000   0.000   0.000   0.000  -0.000   0.000  -0.000  -0.000   0.000   0.000
  0.000   0.000   1.992   0.000   0.000  -0.026   0.000   0.000   0.000   0.000   0.000   0.000   0.000   0.000  -0.000   0.000
 -0.026  -0.000   0.000   0.185   0.000   0.000   0.000   0.000   0.000   0.000   0.000   0.000  -0.000   0.000   0.000   0.000
  0.000  -0.026   0.000   0.000   0.185   0.000  -0.000  -0.000   0.000   0.000  -0.000   0.000   0.000  -0.000  -0.000   0.000
  0.000  -0.000  -0.026   0.000   0.000   0.165   0.000   0.000  -0.000   0.000   0.000   0.000   0.000   0.000  -0.000   0.000
  0.000   0.000   0.000   0.000  -0.000   0.000   3.010   0.000  -0.000   0.000  -0.000  -1.716   0.000   0.000  -0.000   0.000
  0.000   0.000   0.000   0.000  -0.000   0.000   0.000   3.362   0.000   0.000   0.000   0.000  -2.301   0.000  -0.000   0.000
 -0.000   0.000   0.000   0.000   0.000  -0.000  -0.000   0.000   3.436   0.000   0.168   0.000   0.000  -2.032   0.000  -0.091
  0.000   0.000   0.000   0.000   0.000   0.000   0.000   0.000   0.000   3.001   0.000   0.000   0.000  -0.000  -1.709   0.000
  0.000  -0.000   0.000   0.000  -0.000   0.000  -0.000   0.000   0.168   0.000   3.234   0.000  -0.000  -0.091  -0.000  -1.921
  0.000   0.000   0.000   0.000   0.000   0.000  -1.716   0.000   0.000   0.000   0.000   1.829   0.000   0.000   0.000   0.000
 -0.000  -0.000   0.000  -0.000   0.000   0.000   0.000  -2.301   0.000   0.000  -0.000   0.000   2.552  -0.000   0.000   0.000
 -0.000  -0.000   0.000   0.000  -0.000   0.000   0.000   0.000  -2.032  -0.000  -0.091   0.000  -0.000   1.895   0.000   0.017
  0.000   0.000  -0.000   0.000  -0.000  -0.000  -0.000  -0.000   0.000  -1.709  -0.000   0.000   0.000   0.000   1.826   0.000
  0.000   0.000   0.000   0.000   0.000   0.000   0.000   0.000  -0.091   0.000  -1.921   0.000   0.000   0.017   0.000   1.870
  0.000   0.000   0.000   0.000  -0.000   0.000   0.000   0.000  -0.107  -0.000   0.185  -0.000  -0.000   0.079   0.000  -0.136
 -0.000  -0.000  -0.000  -0.000   0.000   0.000  -0.000  -0.000   0.006   0.000  -0.012   0.000   0.000  -0.004   0.000   0.008
 total augmentation occupancy for first ion, spin component:           2
 -0.002   0.000   0.000  -0.009  -0.000  -0.000   0.000  -0.000   0.000   0.000   0.000   0.000   0.000  -0.000   0.000   0.000
  0.000  -0.002   0.000   0.000  -0.009   0.000   0.000   0.000  -0.000   0.000   0.000   0.000   0.000   0.000   0.000  -0.000
  0.000   0.000  -0.002   0.000  -0.000  -0.010   0.000  -0.000   0.000  -0.000   0.000   0.000   0.000   0.000   0.000   0.000
 -0.009   0.000   0.000  -0.005   0.000   0.000   0.000   0.000  -0.000   0.000  -0.000  -0.000   0.000   0.000  -0.000  -0.000
 -0.000  -0.009  -0.000   0.000  -0.006   0.000   0.000   0.000   0.000   0.000  -0.000   0.000   0.000  -0.000  -0.000   0.000
 -0.000   0.000  -0.010   0.000   0.000  -0.011   0.000  -0.000  -0.000   0.000   0.000   0.000   0.000   0.000  -0.000   0.000
  0.000   0.000   0.000   0.000   0.000   0.000   2.427  -0.000  -0.000   0.000   0.000  -1.063   0.000  -0.000   0.000   0.000
 -0.000   0.000  -0.000   0.000   0.000  -0.000  -0.000   2.438   0.000  -0.000   0.000   0.000  -0.985  -0.000  -0.000   0.000
  0.000  -0.000   0.000  -0.000   0.000  -0.000  -0.000   0.000   2.752   0.000   0.093  -0.000   0.000  -1.166  -0.000  -0.092
  0.000   0.000  -0.000   0.000   0.000   0.000   0.000  -0.000   0.000   2.416   0.000  -0.000   0.000   0.000  -1.056   0.000
  0.000   0.000   0.000  -0.000  -0.000   0.000   0.000   0.000   0.093   0.000   2.639   0.000   0.000  -0.092   0.000  -1.056
  0.000   0.000   0.000  -0.000   0.000   0.000  -1.063   0.000  -0.000  -0.000   0.000   0.259   0.000  -0.000  -0.000  -0.000
  0.000   0.000   0.000   0.000   0.000   0.000   0.000  -0.985   0.000   0.000   0.000   0.000   0.141   0.000   0.000   0.000
 -0.000   0.000   0.000   0.000  -0.000   0.000  -0.000  -0.000  -1.166   0.000  -0.092  -0.000   0.000   0.352  -0.000   0.106
  0.000   0.000   0.000  -0.000  -0.000  -0.000   0.000  -0.000  -0.000  -1.056   0.000  -0.000   0.000  -0.000   0.254  -0.000
  0.000  -0.000   0.000  -0.000   0.000   0.000   0.000   0.000  -0.092   0.000  -1.056  -0.000   0.000   0.106  -0.000   0.226
  0.000   0.000   0.000   0.000   0.000   0.000   0.000   0.000  -0.032   0.000   0.056   0.000  -0.000   0.032   0.000  -0.056
 -0.000   0.000   0.000  -0.000   0.000   0.000   0.000   0.000   0.002   0.000  -0.004   0.000   0.000  -0.000   0.000   0.001


------------------------ aborting loop because EDIFF is reached ----------------------------------------





 total charge

# of ion       s       p       d       tot
------------------------------------------
    1        0.350   6.332   6.032  12.714
    2        0.350   6.332   6.032  12.714
    3        0.350   6.332   6.032  12.714
    4        0.350   6.333   6.032  12.715
    5        0.350   6.332   6.031  12.714
    6        0.350   6.332   6.031  12.714
    7        0.350   6.332   6.032  12.714
    8        0.350   6.332   6.032  12.714
    9        0.350   6.332   6.032  12.714
   10        0.768   0.713   8.049   9.530
   11        0.768   0.712   8.049   9.529
   12        0.768   0.712   8.049   9.529
--------------------------------------------------
tot          5.456  59.128  78.433 143.017



 magnetization (x)

# of ion       s       p       d       tot
------------------------------------------
    1       -0.002  -0.017   2.725   2.705
    2       -0.002  -0.017   2.725   2.706
    3       -0.002  -0.017   2.725   2.705
    4       -0.003  -0.017   2.726   2.706
    5       -0.003  -0.017   2.731   2.712
    6       -0.003  -0.017   2.731   2.712
    7       -0.002  -0.017   2.725   2.705
    8       -0.002  -0.017   2.725   2.706
    9       -0.002  -0.017   2.725   2.705
   10       -0.041  -0.101   0.451   0.309
   11       -0.041  -0.101   0.452   0.310
   12       -0.041  -0.101   0.452   0.310
--------------------------------------------------
tot         -0.147  -0.454  25.892  25.292
 
    CHARGE:  cpu time      0.1448: real time      0.1457
    FORLOC:  cpu time      0.0022: real time      0.0022
    FORNL :  cpu time      0.7193: real time      0.7231
    STRESS:  cpu time      4.4015: real time      4.4379
    FORCOR:  cpu time      0.0209: real time      0.0212
    FORHAR:  cpu time      0.0026: real time      0.0027
    MIXING:  cpu time      0.0140: real time      0.0141
    OFIELD:  cpu time      0.0015: real time      0.0018

  FORCE on cell =-STRESS in cart. coord.  units (eV):
  Direction    XX          YY          ZZ          XY          YZ          ZX
  --------------------------------------------------------------------------------------
  Alpha Z  1105.13071  1105.13071  1105.13071
  Ewald   -6056.43503 -6056.43503 -6057.44456     0.00000    -0.00000    -0.00000
  Hartree  1870.42701  1870.42701  1869.94141    -0.00000    -0.00000    -0.00000
  E(xc)    -945.10766  -945.10766  -945.10690     0.00000     0.00000    -0.00000
  Local    1107.87652  1107.87652  1109.26516     0.00000    -0.00000    -0.00000
  n-local  -211.64812  -225.79322  -218.84796    15.28772    -0.07560    -0.10881
  augment  1438.53758  1438.53758  1438.61048     0.00000     0.00000    -0.00000
  Kinetic  1703.90189  1697.92434  1700.89329     1.39433     0.27651     0.66227
  Fock        0.00000     0.00000     0.00000     0.00000     0.00000     0.00000
  -------------------------------------------------------------------------------------
  Total       2.62157     2.62157     2.44163     0.00000    -0.00000     0.00000
  in kB      27.27415    27.27415    25.40207     0.00000    -0.00000     0.00000
  external pressure =       26.65 kB  Pullay stress =        0.00 kB


 VOLUME and BASIS-vectors are now :
 -----------------------------------------------------------------------------
  energy-cutoff  :      520.00
  volume of cell :      154.00
      direct lattice vectors                 reciprocal lattice vectors
     3.715363490  0.000000000  0.000000000     0.269152669  0.000000000  0.000000000
     0.000000000  3.715363490  0.000000000     0.000000000  0.269152669  0.000000000
     0.000000000  0.000000000 11.156246530     0.000000000  0.000000000  0.089635882

  length of vectors
     3.715363490  3.715363490 11.156246530     0.269152669  0.269152669  0.089635882


 FORCES acting on ions
    electron-ion (+dipol)            ewald-force                    non-local-force                 convergence-correction
 -----------------------------------------------------------------------------------------------
   -.554E-13 0.104E-11 -.149E+01   0.363E-13 0.229E-13 0.146E+01   0.344E-20 -.571E-20 -.424E-02   -.602E-13 -.148E-13 0.352E-01
   -.563E-13 0.110E-11 0.328E-11   -.210E-14 -.189E-13 0.171E-12   0.302E-24 0.571E-24 -.123E-23   -.532E-13 -.136E-13 -.184E-11
   -.558E-13 0.804E-12 0.149E+01   0.433E-14 -.847E-14 -.146E+01   -.282E-20 -.426E-20 0.424E-02   -.578E-13 -.137E-13 -.352E-01
   0.108E-11 0.796E-11 0.468E-11   0.118E-13 -.211E-13 -.114E-12   -.282E-24 0.551E-24 0.180E-23   -.166E-12 -.102E-13 0.150E-11
   0.107E-11 -.434E-11 -.144E+01   0.343E-13 -.245E-13 0.141E+01   0.182E-20 -.741E-21 0.978E-02   -.167E-12 -.134E-13 0.255E-01
   0.108E-11 -.504E-11 0.144E+01   0.376E-13 0.235E-13 -.141E+01   -.230E-20 0.504E-21 -.978E-02   -.170E-12 -.137E-13 -.255E-01
   0.108E-11 -.607E-13 -.149E+01   -.966E-14 0.214E-13 0.146E+01   -.578E-20 0.158E-20 -.424E-02   -.195E-12 0.909E-14 0.352E-01
   0.108E-11 -.573E-13 0.610E-11   -.336E-14 -.437E-14 0.171E-12   -.768E-25 0.292E-24 0.238E-23   -.199E-12 0.789E-14 -.186E-11
   0.108E-11 -.528E-13 0.149E+01   -.653E-14 0.121E-13 -.146E+01   0.568E-20 -.960E-21 0.424E-02   -.208E-12 0.110E-13 -.352E-01
   -.423E-13 -.406E-13 -.286E-12   -.164E-13 0.595E-14 -.114E-12   -.232E-24 -.608E-24 -.219E-23   0.285E-13 0.348E-14 0.112E-11
   -.423E-13 -.431E-13 -.712E+00   -.112E-13 0.396E-14 0.697E+00   -.315E-20 -.101E-21 -.323E-02   0.283E-13 0.338E-14 0.183E-01
   -.422E-13 -.372E-13 0.712E+00   -.239E-13 -.517E-14 -.697E+00   0.102E-20 0.231E-21 0.323E-02   0.289E-13 0.202E-14 -.183E-01
 -----------------------------------------------------------------------------------------------
   0.618E-11 0.122E-11 0.328E-10   0.512E-13 0.739E-14 0.175E-12   -.211E-20 -.944E-20 0.000E+00   -.119E-11 -.425E-13 -.522E-12
 
 
 POSITION                                       TOTAL-FORCE (eV/Angst)
 -----------------------------------------------------------------------------------
      0.00000      1.85768      1.85876         0.000000     -0.000000     -0.000008
      0.00000      1.85768      5.57812         0.000000     -0.000000      0.000000
      0.00000      1.85768      9.29749         0.000000      0.000000      0.000008
      1.85768      1.85768      0.00000        -0.000000      0.000000      0.000000
      1.85768      1.85768      3.71795         0.000000     -0.000000      0.002807
      1.85768      1.85768      7.43830         0.000000     -0.000000     -0.002807
      1.85768      0.00000      1.85876        -0.000000      0.000000     -0.000008
      1.85768      0.00000      5.57812        -0.000000      0.000000      0.000000
      1.85768      0.00000      9.29749         0.000000      0.000000      0.000008
      0.00000      0.00000      0.00000         0.000000      0.000000      0.000000
      0.00000      0.00000      3.71865         0.000000      0.000000     -0.000594
      0.00000      0.00000      7.43760         0.000000      0.000000      0.000594
 -----------------------------------------------------------------------------------
    total drift:                                0.000000      0.000000      0.000000


--------------------------------------------------------------------------------------------------------



  FREE ENERGIE OF THE ION-ELECTRON SYSTEM (eV)
  ---------------------------------------------------
  free  energy   TOTEN  =       -93.51005585 eV

  energy  without entropy=      -93.51005585  energy(sigma->0) =      -93.51005585
 


--------------------------------------------------------------------------------------------------------


    POTLOK:  cpu time      0.0378: real time      0.0383


--------------------------------------------------------------------------------------------------------


     LOOP+:  cpu time    175.6117: real time    178.7247
 -----------------------------------------------------------------------------
|                                                                             |
|           W    W    AA    RRRRR   N    N  II  N    N   GGGG   !!!           |
|           W    W   A  A   R    R  NN   N  II  NN   N  G    G  !!!           |
|           W    W  A    A  R    R  N N  N  II  N N  N  G       !!!           |
|           W WW W  AAAAAA  RRRRR   N  N N  II  N  N N  G  GGG   !            |
|           WW  WW  A    A  R   R   N   NN  II  N   NN  G    G                |
|           W    W  A    A  R    R  N    N  II  N    N   GGGG   !!!           |
|                                                                             |
|     Tetrahedron method does not include variations of the Fermi             |
|     occupations, so forces and stress will be inaccurate. We suggest        |
|     using a different smearing scheme ISMEAR = 1 or 2 for metals in         |
|     relaxations.                                                            |
|                                                                             |
 -----------------------------------------------------------------------------

    4ORBIT:  cpu time      0.0000: real time      0.0000



 total charge

# of ion       s       p       d       tot
------------------------------------------
    1        0.350   6.332   6.032  12.714
    2        0.350   6.332   6.032  12.714
    3        0.350   6.332   6.032  12.714
    4        0.350   6.333   6.032  12.715
    5        0.350   6.332   6.031  12.714
    6        0.350   6.332   6.031  12.714
    7        0.350   6.332   6.032  12.714
    8        0.350   6.332   6.032  12.714
    9        0.350   6.332   6.032  12.714
   10        0.768   0.713   8.049   9.530
   11        0.768   0.712   8.049   9.529
   12        0.768   0.712   8.049   9.529
--------------------------------------------------
tot          5.456  59.128  78.433 143.017



 magnetization (x)

# of ion       s       p       d       tot
------------------------------------------
    1       -0.002  -0.017   2.725   2.705
    2       -0.002  -0.017   2.725   2.706
    3       -0.002  -0.017   2.725   2.705
    4       -0.003  -0.017   2.726   2.706
    5       -0.003  -0.017   2.731   2.712
    6       -0.003  -0.017   2.731   2.712
    7       -0.002  -0.017   2.725   2.705
    8       -0.002  -0.017   2.725   2.706
    9       -0.002  -0.017   2.725   2.705
   10       -0.041  -0.101   0.451   0.309
   11       -0.041  -0.101   0.452   0.310
   12       -0.041  -0.101   0.452   0.310
--------------------------------------------------
tot         -0.147  -0.454  25.892  25.292
 
 BZINTS: Fermi energy:    9.881050;  156.000000 electrons
         Band energy:-0.160466E+04;  BLOECHL correction:   -0.059188

 total amount of memory used by VASP MPI-rank0   187771. kBytes
=======================================================================

   base      :      30000. kBytes
   nonl-proj :     102217. kBytes
   fftplans  :        888. kBytes
   grid      :       6813. kBytes
   one-center:        373. kBytes
   wavefun   :      47480. kBytes
 
  
  
 General timing and accounting informations for this job:
 ========================================================
  
                  Total CPU time used (sec):      194.392
                            User time (sec):      186.439
                          System time (sec):        7.953
                         Elapsed time (sec):      203.815
  
                   Maximum memory used (kb):      826972.
                   Average memory used (kb):          N/A
  
                          Minor page faults:       157592
                          Major page faults:          137
                 Voluntary context switches:         7703
