 vasp.6.4.3 19Mar24 (build Mar 26 2024 14:05:37) complex                        
  
 executed on             LinuxIFC date 2024.12.16  08:13:12
 running  128 mpi-ranks, on    1 nodes
 distrk:  each k-point on   32 cores,    4 groups
 distr:  one band on NCORE=   1 cores,   32 groups


--------------------------------------------------------------------------------------------------------


 INCAR:
   ALGO = All
   EDIFF = 1e-06
   EDIFFG = -0.01
   ENCUT = 520
   GGA = Pe
   IBRION = 2
   ISIF = 4
   ISMEAR = 1
   ISPIN = 2
   KPAR = 4
   LCHARG = True
   LORBIT = 11
   LREAL = False
   LWAVE = False
   MAGMOM = 1*2.709 1*2.71 1*2.709 1*2.71 3*2.709 1*2.71 1*2.709 3*0.308
   NELM = 200
   NSW = 100
   PREC = Accurate
   SIGMA = 0.2

 POTCAR:    PAW_PBE Fe_pv 02Aug2007               
 POTCAR:    PAW_PBE Pt 04Feb2005                  
 -----------------------------------------------------------------------------
|                                                                             |
|           W    W    AA    RRRRR   N    N  II  N    N   GGGG   !!!           |
|           W    W   A  A   R    R  NN   N  II  NN   N  G    G  !!!           |
|           W    W  A    A  R    R  N N  N  II  N N  N  G       !!!           |
|           W WW W  AAAAAA  RRRRR   N  N N  II  N  N N  G  GGG   !            |
|           WW  WW  A    A  R   R   N   NN  II  N   NN  G    G                |
|           W    W  A    A  R    R  N    N  II  N    N   GGGG   !!!           |
|                                                                             |
|     For optimal performance we recommend to set                             |
|       NCORE = 2 up to number-of-cores-per-socket                            |
|     NCORE specifies how many cores store one orbital (NPAR=cpu/NCORE).      |
|     This setting can greatly improve the performance of VASP for DFT.       |
|     The default, NCORE=1 might be grossly inefficient on modern             |
|     multi-core architectures or massively parallel machines. Do your        |
|     own testing! More info at https://www.vasp.at/wiki/index.php/NCORE      |
|     Unfortunately you need to use the default for GW and RPA                |
|     calculations (for HF NCORE is supported but not extensively tested      |
|     yet).                                                                   |
|                                                                             |
 -----------------------------------------------------------------------------

 POTCAR:    PAW_PBE Fe_pv 02Aug2007               
   SHA256 =  5d22e414b1f82158bf2c7ecb8b97b28fd0923e48cadc1c3bf74d524558f5dd32 Fe_pv/POTCAR          
   COPYR  = (c) Copyright 02Aug2007 Georg Kresse                                                    
   COPYR  = This file is part of the software VASP. Any use, copying, and all other rights are regul
   COPYR  = If you do not have a valid VASP license, you may not use, copy or distribute this file. 
   VRHFIN =Fe:  3pd7s1                                                                              
   LEXCH  = PE                                                                                      
   EATOM  =  2457.4239 eV,  180.6156 Ry                                                             
                                                                                                    
   TITEL  = PAW_PBE Fe_pv 02Aug2007                                                                 
   LULTRA =        F    use ultrasoft PP ?                                                          
   IUNSCR =        1    unscreen: 0-lin 1-nonlin 2-no                                               
   RPACOR =    1.750    partial core radius                                                         
   POMASS =   55.847; ZVAL   =   14.000    mass and valenz                                          
   RCORE  =    2.200    outmost cutoff radius                                                       
   RWIGS  =    2.200; RWIGS  =    1.164    wigner-seitz radius (au A)                               
   ENMAX  =  293.238; ENMIN  =  219.928 eV                                                          
   ICORE  =        3    local potential                                                             
   LCOR   =        T    correct aug charges                                                         
   LPAW   =        T    paw PP                                                                      
   EAUG   =  578.342                                                                                
   DEXC   =    0.000                                                                                
   RMAX   =    2.249    core radius for proj-oper                                                   
   RAUG   =    1.300    factor for augmentation sphere                                              
   RDEP   =    2.296    radius for radial grids                                                     
   RDEPT  =    1.766    core radius for aug-charge                                                  
                                                                                                    
   Atomic configuration                                                                             
    8 entries                                                                                       
     n  l   j            E        occ.                                                              
     1  0  0.50     -6993.8440   2.0000                                                             
     2  0  0.50      -814.6047   2.0000                                                             
     2  1  1.50      -693.3689   6.0000                                                             
     3  0  0.50       -89.4732   2.0000                                                             
     3  1  1.50       -55.6373   6.0000                                                             
     3  2  2.50        -3.8151   7.0000                                                             
     4  0  0.50        -4.2551   1.0000                                                             
     4  3  2.50        -1.3606   0.0000                                                             
   Description                                                                                      
     l       E           TYP  RCUT    TYP  RCUT                                                     
     1    -55.6372668     23  2.000                                                                 
     1     -5.4423304     23  2.000                                                                 
     2     -3.8151096     23  2.200                                                                 
     2     -5.1756922     23  2.200                                                                 
     0     -4.2550951     23  2.200                                                                 
     0     27.2116520     23  2.200                                                                 
     3     -1.3605826     23  2.200                                                                 
  local pseudopotential read in
  partial core-charges read in
  partial kinetic energy density read in
  atomic valenz-charges read in
  non local Contribution for L=           1  read in
    real space projection operators read in
  non local Contribution for L=           1  read in
    real space projection operators read in
  non local Contribution for L=           2  read in
    real space projection operators read in
  non local Contribution for L=           2  read in
    real space projection operators read in
  non local Contribution for L=           0  read in
    real space projection operators read in
  non local Contribution for L=           0  read in
    real space projection operators read in
    PAW grid and wavefunctions read in
 
   number of l-projection  operators is LMAX  =           6
   number of lm-projection operators is LMMAX =          18
 
 POTCAR:    PAW_PBE Pt 04Feb2005                  
   SHA256 =  3ed90460adef76debcff1cfb73ee1349b515b1a3db03439735b44de3a8db7dc8 Pt/POTCAR             
   COPYR  = (c) Copyright 04Feb2005 Georg Kresse                                                    
   COPYR  = This file is part of the software VASP. Any use, copying, and all other rights are regul
   COPYR  = If you do not have a valid VASP license, you may not use, copy or distribute this file. 
   VRHFIN =Pt: s1d9                                                                                 
   LEXCH  = PE                                                                                      
   EATOM  =   729.1176 eV,   53.5886 Ry                                                             
                                                                                                    
   TITEL  = PAW_PBE Pt 04Feb2005                                                                    
   LULTRA =        F    use ultrasoft PP ?                                                          
   IUNSCR =        1    unscreen: 0-lin 1-nonlin 2-no                                               
   RPACOR =    2.330    partial core radius                                                         
   POMASS =  195.080; ZVAL   =   10.000    mass and valenz                                          
   RCORE  =    2.600    outmost cutoff radius                                                       
   RWIGS  =    2.750; RWIGS  =    1.455    wigner-seitz radius (au A)                               
   ENMAX  =  230.283; ENMIN  =  172.712 eV                                                          
   ICORE  =        3    local potential                                                             
   LCOR   =        T    correct aug charges                                                         
   LPAW   =        T    paw PP                                                                      
   EAUG   =  358.966                                                                                
   DEXC   =    0.000                                                                                
   RMAX   =    2.658    core radius for proj-oper                                                   
   RAUG   =    1.300    factor for augmentation sphere                                              
   RDEP   =    2.761    radius for radial grids                                                     
   RDEPT  =    2.203    core radius for aug-charge                                                  
                                                                                                    
   Atomic configuration                                                                             
   16 entries                                                                                       
     n  l   j            E        occ.                                                              
     1  0  0.50    -78401.1885   2.0000                                                             
     2  0  0.50    -13770.7750   2.0000                                                             
     2  1  1.50    -11931.0468   6.0000                                                             
     3  0  0.50     -3234.7234   2.0000                                                             
     3  1  1.50     -2699.2216   6.0000                                                             
     3  2  2.50     -2119.5714  10.0000                                                             
     4  0  0.50      -695.1528   2.0000                                                             
     4  1  1.50      -519.6034   6.0000                                                             
     4  2  2.50      -306.6786  10.0000                                                             
     4  3  3.50       -70.1041  14.0000                                                             
     5  0  0.50      -101.7747   2.0000                                                             
     5  1  1.50       -55.9873   6.0000                                                             
     5  2  2.50        -6.1423   9.0000                                                             
     6  0  0.50        -5.6573   1.0000                                                             
     6  1  1.50        -6.8029   0.0000                                                             
     5  3  2.50        -1.3606   0.0000                                                             
   Description                                                                                      
     l       E           TYP  RCUT    TYP  RCUT                                                     
     2     -6.1423404     23  2.500                                                                 
     2     -7.5029230     23  2.500                                                                 
     0     -5.6573207     23  2.500                                                                 
     0      0.7416693     23  2.500                                                                 
     1     -2.7211652     23  2.600                                                                 
     1     20.4087390     23  2.600                                                                 
     3     -1.3605826     23  2.500                                                                 
  local pseudopotential read in
  partial core-charges read in
  partial kinetic energy density read in
  atomic valenz-charges read in
  non local Contribution for L=           2  read in
    real space projection operators read in
  non local Contribution for L=           2  read in
    real space projection operators read in
  non local Contribution for L=           0  read in
    real space projection operators read in
  non local Contribution for L=           0  read in
    real space projection operators read in
  non local Contribution for L=           1  read in
    real space projection operators read in
  non local Contribution for L=           1  read in
    real space projection operators read in
    PAW grid and wavefunctions read in
 
   number of l-projection  operators is LMAX  =           6
   number of lm-projection operators is LMMAX =          18
 
  PAW_PBE Fe_pv 02Aug2007               :
 energy of atom  1       EATOM=-2457.4239
 kinetic energy error for atom=    0.0062 (will be added to EATOM!!)
  PAW_PBE Pt 04Feb2005                  :
 energy of atom  2       EATOM= -729.1176
 kinetic energy error for atom=    0.0032 (will be added to EATOM!!)
 
 
 POSCAR: Fe9 Pt3
  positions in direct lattice
  velocities in cartesian coordinates


 exchange-correlation table for PE
   RHO(1)=    0.500       N(1)  =     2000
   RHO(2)=  100.500       N(2)  =     4000
 


--------------------------------------------------------------------------------------------------------


 ion  position               nearest neighbor table
   1  0.000  0.500  0.167-   7 2.63   7 2.63   7 2.63   7 2.63   5 2.63   5 2.63  11 2.63  11 2.63
                             4 2.63  10 2.63  10 2.63   4 2.63
   2  0.000  0.500  0.500-   8 2.63   8 2.63   8 2.63   8 2.63  11 2.63  12 2.63  12 2.63  11 2.63
                             5 2.63   6 2.63   5 2.63   6 2.63
   3  0.000  0.500  0.833-   9 2.63   9 2.63   9 2.63   9 2.63   6 2.63   6 2.63  12 2.63  12 2.63
                             4 2.63  10 2.63  10 2.63   4 2.63
   4  0.500  0.500  0.000-  10 2.63  10 2.63  10 2.63  10 2.63   1 2.63   7 2.63   9 2.63   3 2.63
                             1 2.63   3 2.63   7 2.63   9 2.63
   5  0.500  0.500  0.333-  11 2.63  11 2.63  11 2.63  11 2.63   7 2.63   1 2.63   1 2.63   7 2.63
                             8 2.63   2 2.63   8 2.63   2 2.63
   6  0.500  0.500  0.667-  12 2.63  12 2.63  12 2.63  12 2.63   9 2.63   3 2.63   3 2.63   9 2.63
                             2 2.63   8 2.63   2 2.63   8 2.63
   7  0.500  0.000  0.167-   1 2.63   1 2.63   1 2.63   1 2.63   5 2.63   5 2.63  11 2.63  11 2.63
                            10 2.63  10 2.63   4 2.63   4 2.63
   8  0.500  0.000  0.500-   2 2.63   2 2.63   2 2.63   2 2.63  12 2.63  11 2.63  12 2.63  11 2.63
                             6 2.63   5 2.63   5 2.63   6 2.63
   9  0.500  0.000  0.833-   3 2.63   3 2.63   3 2.63   3 2.63   6 2.63   6 2.63  12 2.63  12 2.63
                            10 2.63  10 2.63   4 2.63   4 2.63
  10  0.000  0.000  0.000-   4 2.63   4 2.63   4 2.63   4 2.63   9 2.63   1 2.63   3 2.63   3 2.63
                             1 2.63   7 2.63   9 2.63   7 2.63
  11  0.000  0.000  0.333-   5 2.63   5 2.63   5 2.63   5 2.63   1 2.63   7 2.63   7 2.63   1 2.63
                             2 2.63   2 2.63   8 2.63   8 2.63
  12  0.000  0.000  0.667-   6 2.63   6 2.63   6 2.63   6 2.63   3 2.63   9 2.63   9 2.63   3 2.63
                             2 2.63   8 2.63   8 2.63   2 2.63
 
  LATTYP: Found a simple tetragonal cell.
 ALAT       =     3.7153796664
 C/A-ratio  =     3.0026943098
  
  Lattice vectors:
  
 A1 = (   3.7153796664,   0.0000000000,   0.0000000000)
 A2 = (   0.0000000000,   3.7153796664,   0.0000000000)
 A3 = (   0.0000000000,   0.0000000000,  11.1561493832)


Analysis of symmetry for initial positions (statically):
=====================================================================
 Subroutine PRICEL returns:
 Original cell was already a primitive cell.
 

 Routine SETGRP: Setting up the symmetry group for a 
 simple tetragonal supercell.


 Subroutine GETGRP returns: Found 16 space group operations
 (whereof 16 operations were pure point group operations)
 out of a pool of 16 trial point group operations.


The static configuration has the point symmetry D_4h.


Analysis of symmetry for dynamics (positions and initial velocities):
=====================================================================
 Subroutine PRICEL returns:
 Original cell was already a primitive cell.
 

 Routine SETGRP: Setting up the symmetry group for a 
 simple tetragonal supercell.


 Subroutine GETGRP returns: Found 16 space group operations
 (whereof 16 operations were pure point group operations)
 out of a pool of 16 trial point group operations.


The dynamic configuration has the point symmetry D_4h.


Analysis of structural, dynamic, and magnetic symmetry:
=====================================================================
 Subroutine PRICEL returns:
 Original cell was already a primitive cell.
 

 Routine SETGRP: Setting up the symmetry group for a 
 simple tetragonal supercell.


 Subroutine GETGRP returns: Found 16 space group operations
 (whereof 16 operations were pure point group operations)
 out of a pool of 16 trial point group operations.


The overall configuration has the point symmetry D_4h.


 Subroutine INISYM returns: Found 16 space group operations
 (whereof 16 operations are pure point group operations),
 and found     1 'primitive' translations


----------------------------------------------------------------------------------------

                                     Primitive cell                                     

  volume of cell :     154.0000

  direct lattice vectors                    reciprocal lattice vectors
     3.715379666  0.000000000  0.000000000     0.269151497  0.000000000  0.000000000
     0.000000000  3.715379666  0.000000000     0.000000000  0.269151497  0.000000000
     0.000000000  0.000000000 11.156149383     0.000000000  0.000000000  0.089636663

  length of vectors
     3.715379666  3.715379666 11.156149383     0.269151497  0.269151497  0.089636663

  position of ions in fractional coordinates (direct lattice)
     0.000000000  0.500000000  0.166682337
     0.000000000  0.500000000  0.500000000
     0.000000000  0.500000000  0.833317663
     0.500000000  0.500000000  0.000000000
     0.500000000  0.500000000  0.333259192
     0.500000000  0.500000000  0.666740808
     0.500000000  0.000000000  0.166682337
     0.500000000  0.000000000  0.500000000
     0.500000000  0.000000000  0.833317663
     0.000000000  0.000000000  0.000000000
     0.000000000  0.000000000  0.333324776
     0.000000000  0.000000000  0.666675224

  ion indices of the primitive-cell ions
   primitive index   ion index
                 1           1
                 2           2
                 3           3
                 4           4
                 5           5
                 6           6
                 7           7
                 8           8
                 9           9
                10          10
                11          11
                12          12

----------------------------------------------------------------------------------------

 
 
 KPOINTS: pymatgen with grid density = 8800 / numb

Automatic generation of k-mesh.
 Grid dimensions read from file:
 generate k-points for:   13   13    4

 Generating k-lattice:

  Cartesian coordinates                     Fractional coordinates (reciprocal lattice)
     0.020703961  0.000000000  0.000000000     0.076923077  0.000000000  0.000000000
     0.000000000  0.020703961  0.000000000     0.000000000  0.076923077  0.000000000
     0.000000000  0.000000000  0.022409166     0.000000000  0.000000000  0.250000000

  Length of vectors
     0.020703961  0.020703961  0.022409166

  Shift w.r.t. Gamma in fractional coordinates (k-lattice)
     0.000000000  0.000000000  0.000000000

 
 Subroutine IBZKPT returns following result:
 ===========================================
 
 Found     84 irreducible k-points:
 
 Following reciprocal coordinates:
            Coordinates               Weight
  0.000000  0.000000  0.000000      1.000000
  0.076923  0.000000  0.000000      4.000000
  0.153846  0.000000  0.000000      4.000000
  0.230769  0.000000  0.000000      4.000000
  0.307692  0.000000  0.000000      4.000000
  0.384615  0.000000  0.000000      4.000000
  0.461538  0.000000  0.000000      4.000000
  0.076923  0.076923  0.000000      4.000000
  0.153846  0.076923  0.000000      8.000000
  0.230769  0.076923  0.000000      8.000000
  0.307692  0.076923  0.000000      8.000000
  0.384615  0.076923  0.000000      8.000000
  0.461538  0.076923  0.000000      8.000000
  0.153846  0.153846  0.000000      4.000000
  0.230769  0.153846  0.000000      8.000000
  0.307692  0.153846  0.000000      8.000000
  0.384615  0.153846  0.000000      8.000000
  0.461538  0.153846  0.000000      8.000000
  0.230769  0.230769  0.000000      4.000000
  0.307692  0.230769  0.000000      8.000000
  0.384615  0.230769  0.000000      8.000000
  0.461538  0.230769  0.000000      8.000000
  0.307692  0.307692  0.000000      4.000000
  0.384615  0.307692  0.000000      8.000000
  0.461538  0.307692  0.000000      8.000000
  0.384615  0.384615  0.000000      4.000000
  0.461538  0.384615  0.000000      8.000000
  0.461538  0.461538  0.000000      4.000000
  0.000000  0.000000  0.250000      2.000000
  0.076923  0.000000  0.250000      8.000000
  0.153846  0.000000  0.250000      8.000000
  0.230769  0.000000  0.250000      8.000000
  0.307692  0.000000  0.250000      8.000000
  0.384615  0.000000  0.250000      8.000000
  0.461538  0.000000  0.250000      8.000000
  0.076923  0.076923  0.250000      8.000000
  0.153846  0.076923  0.250000     16.000000
  0.230769  0.076923  0.250000     16.000000
  0.307692  0.076923  0.250000     16.000000
  0.384615  0.076923  0.250000     16.000000
  0.461538  0.076923  0.250000     16.000000
  0.153846  0.153846  0.250000      8.000000
  0.230769  0.153846  0.250000     16.000000
  0.307692  0.153846  0.250000     16.000000
  0.384615  0.153846  0.250000     16.000000
  0.461538  0.153846  0.250000     16.000000
  0.230769  0.230769  0.250000      8.000000
  0.307692  0.230769  0.250000     16.000000
  0.384615  0.230769  0.250000     16.000000
  0.461538  0.230769  0.250000     16.000000
  0.307692  0.307692  0.250000      8.000000
  0.384615  0.307692  0.250000     16.000000
  0.461538  0.307692  0.250000     16.000000
  0.384615  0.384615  0.250000      8.000000
  0.461538  0.384615  0.250000     16.000000
  0.461538  0.461538  0.250000      8.000000
  0.000000  0.000000  0.500000      1.000000
  0.076923  0.000000  0.500000      4.000000
  0.153846  0.000000  0.500000      4.000000
  0.230769  0.000000  0.500000      4.000000
  0.307692  0.000000  0.500000      4.000000
  0.384615  0.000000  0.500000      4.000000
  0.461538  0.000000  0.500000      4.000000
  0.076923  0.076923  0.500000      4.000000
  0.153846  0.076923  0.500000      8.000000
  0.230769  0.076923  0.500000      8.000000
  0.307692  0.076923  0.500000      8.000000
  0.384615  0.076923  0.500000      8.000000
  0.461538  0.076923  0.500000      8.000000
  0.153846  0.153846  0.500000      4.000000
  0.230769  0.153846  0.500000      8.000000
  0.307692  0.153846  0.500000      8.000000
  0.384615  0.153846  0.500000      8.000000
  0.461538  0.153846  0.500000      8.000000
  0.230769  0.230769  0.500000      4.000000
  0.307692  0.230769  0.500000      8.000000
  0.384615  0.230769  0.500000      8.000000
  0.461538  0.230769  0.500000      8.000000
  0.307692  0.307692  0.500000      4.000000
  0.384615  0.307692  0.500000      8.000000
  0.461538  0.307692  0.500000      8.000000
  0.384615  0.384615  0.500000      4.000000
  0.461538  0.384615  0.500000      8.000000
  0.461538  0.461538  0.500000      4.000000
 
 Following cartesian coordinates:
            Coordinates               Weight
  0.000000  0.000000  0.000000      1.000000
  0.020704  0.000000  0.000000      4.000000
  0.041408  0.000000  0.000000      4.000000
  0.062112  0.000000  0.000000      4.000000
  0.082816  0.000000  0.000000      4.000000
  0.103520  0.000000  0.000000      4.000000
  0.124224  0.000000  0.000000      4.000000
  0.020704  0.020704  0.000000      4.000000
  0.041408  0.020704  0.000000      8.000000
  0.062112  0.020704  0.000000      8.000000
  0.082816  0.020704  0.000000      8.000000
  0.103520  0.020704  0.000000      8.000000
  0.124224  0.020704  0.000000      8.000000
  0.041408  0.041408  0.000000      4.000000
  0.062112  0.041408  0.000000      8.000000
  0.082816  0.041408  0.000000      8.000000
  0.103520  0.041408  0.000000      8.000000
  0.124224  0.041408  0.000000      8.000000
  0.062112  0.062112  0.000000      4.000000
  0.082816  0.062112  0.000000      8.000000
  0.103520  0.062112  0.000000      8.000000
  0.124224  0.062112  0.000000      8.000000
  0.082816  0.082816  0.000000      4.000000
  0.103520  0.082816  0.000000      8.000000
  0.124224  0.082816  0.000000      8.000000
  0.103520  0.103520  0.000000      4.000000
  0.124224  0.103520  0.000000      8.000000
  0.124224  0.124224  0.000000      4.000000
  0.000000  0.000000  0.022409      2.000000
  0.020704  0.000000  0.022409      8.000000
  0.041408  0.000000  0.022409      8.000000
  0.062112  0.000000  0.022409      8.000000
  0.082816  0.000000  0.022409      8.000000
  0.103520  0.000000  0.022409      8.000000
  0.124224  0.000000  0.022409      8.000000
  0.020704  0.020704  0.022409      8.000000
  0.041408  0.020704  0.022409     16.000000
  0.062112  0.020704  0.022409     16.000000
  0.082816  0.020704  0.022409     16.000000
  0.103520  0.020704  0.022409     16.000000
  0.124224  0.020704  0.022409     16.000000
  0.041408  0.041408  0.022409      8.000000
  0.062112  0.041408  0.022409     16.000000
  0.082816  0.041408  0.022409     16.000000
  0.103520  0.041408  0.022409     16.000000
  0.124224  0.041408  0.022409     16.000000
  0.062112  0.062112  0.022409      8.000000
  0.082816  0.062112  0.022409     16.000000
  0.103520  0.062112  0.022409     16.000000
  0.124224  0.062112  0.022409     16.000000
  0.082816  0.082816  0.022409      8.000000
  0.103520  0.082816  0.022409     16.000000
  0.124224  0.082816  0.022409     16.000000
  0.103520  0.103520  0.022409      8.000000
  0.124224  0.103520  0.022409     16.000000
  0.124224  0.124224  0.022409      8.000000
  0.000000  0.000000  0.044818      1.000000
  0.020704  0.000000  0.044818      4.000000
  0.041408  0.000000  0.044818      4.000000
  0.062112  0.000000  0.044818      4.000000
  0.082816  0.000000  0.044818      4.000000
  0.103520  0.000000  0.044818      4.000000
  0.124224  0.000000  0.044818      4.000000
  0.020704  0.020704  0.044818      4.000000
  0.041408  0.020704  0.044818      8.000000
  0.062112  0.020704  0.044818      8.000000
  0.082816  0.020704  0.044818      8.000000
  0.103520  0.020704  0.044818      8.000000
  0.124224  0.020704  0.044818      8.000000
  0.041408  0.041408  0.044818      4.000000
  0.062112  0.041408  0.044818      8.000000
  0.082816  0.041408  0.044818      8.000000
  0.103520  0.041408  0.044818      8.000000
  0.124224  0.041408  0.044818      8.000000
  0.062112  0.062112  0.044818      4.000000
  0.082816  0.062112  0.044818      8.000000
  0.103520  0.062112  0.044818      8.000000
  0.124224  0.062112  0.044818      8.000000
  0.082816  0.082816  0.044818      4.000000
  0.103520  0.082816  0.044818      8.000000
  0.124224  0.082816  0.044818      8.000000
  0.103520  0.103520  0.044818      4.000000
  0.124224  0.103520  0.044818      8.000000
  0.124224  0.124224  0.044818      4.000000
 


--------------------------------------------------------------------------------------------------------




 Dimension of arrays:
   k-points           NKPTS =     84   k-points in BZ     NKDIM =     84   number of bands    NBANDS=    128
   number of dos      NEDOS =    301   number of ions     NIONS =     12
   non local maximal  LDIM  =      6   non local SUM 2l+1 LMDIM =     18
   total plane-waves  NPLWV =  65856
   max r-space proj   IRMAX =      1   max aug-charges    IRDMAX=  26097
   dimension x,y,z NGX =    28 NGY =   28 NGZ =   84
   dimension x,y,z NGXF=    56 NGYF=   56 NGZF=  168
   support grid    NGXF=    56 NGYF=   56 NGZF=  168
   ions per type =               9   3
   NGX,Y,Z   is equivalent  to a cutoff of  12.53, 12.53, 12.52 a.u.
   NGXF,Y,Z  is equivalent  to a cutoff of  25.06, 25.06, 25.03 a.u.

 SYSTEM =  unknown system                          
 POSCAR =  Fe9 Pt3                                 

 Startparameter for this run:
   NWRITE =      2    write-flag & timer
   PREC   = accura    normal or accurate (medium, high low for compatibility)
   ISTART =      0    job   : 0-new  1-cont  2-samecut
   ICHARG =      2    charge: 1-file 2-atom 10-const
   ISPIN  =      2    spin polarized calculation?
   LNONCOLLINEAR =      F non collinear calculations
   LSORBIT =      F    spin-orbit coupling
   INIWAV =      1    electr: 0-lowe 1-rand  2-diag
   LASPH  =      F    aspherical Exc in radial PAW
 Electronic Relaxation 1
   ENCUT  =  520.0 eV  38.22 Ry    6.18 a.u.   6.91  6.91 20.74*2*pi/ulx,y,z
   ENINI  =  520.0     initial cutoff
   ENAUG  =  578.3 eV  augmentation charge cutoff
   NELM   =    200;   NELMIN=  2; NELMDL=  0     # of ELM steps 
   EDIFF  = 0.1E-05   stopping-criterion for ELM
   LREAL  =      F    real-space projection
   NLSPLINE    = F    spline interpolate recip. space projectors
   LCOMPAT=      F    compatible to vasp.4.4
   GGA_COMPAT  = T    GGA compatible to vasp.4.4-vasp.4.6
   LMAXPAW     = -100 max onsite density
   LMAXMIX     =    2 max onsite mixed and CHGCAR
   VOSKOWN=      0    Vosko Wilk Nusair interpolation
   ROPT   =    0.00000   0.00000
 Ionic relaxation
   EDIFFG = -.1E-01   stopping-criterion for IOM
   NSW    =    100    number of steps for IOM
   NBLOCK =      1;   KBLOCK =    100    inner block; outer block 
   IBRION =      2    ionic relax: 0-MD 1-quasi-New 2-CG
   NFREE  =      1    steps in history (QN), initial steepest desc. (CG)
   ISIF   =      4    stress and relaxation
   IWAVPR =     11    prediction:  0-non 1-charg 2-wave 3-comb
   ISYM   =      2    0-nonsym 1-usesym 2-fastsym
   LCORR  =      T    Harris-Foulkes like correction to forces

   POTIM  = 0.5000    time-step for ionic-motion
   TEIN   =    0.0    initial temperature
   TEBEG  =    0.0;   TEEND  =   0.0 temperature during run
   SMASS  =  -3.00    Nose mass-parameter (am)
   estimated Nose-frequenzy (Omega)   =  0.10E-29 period in steps = 0.13E+47 mass=  -0.315E-27a.u.
   SCALEE = 1.0000    scale energy and forces
   NPACO  =    256;   APACO  = 10.0  distance and # of slots for P.C.
   PSTRESS=    0.0 pullay stress

  Mass of Ions in am
   POMASS =  55.85195.08
  Ionic Valenz
   ZVAL   =  14.00 10.00
  Atomic Wigner-Seitz radii
   RWIGS  =  -1.00 -1.00
  virtual crystal weights 
   VCA    =   1.00  1.00
   NELECT =     156.0000    total number of electrons
   NUPDOWN=      -1.0000    fix difference up-down

 DOS related values:
   EMIN   =  10.00;   EMAX   =-10.00  energy-range for DOS
   EFERMI =   0.00;   METHOD = LEGACY      
   ISMEAR =     1;   SIGMA  =   0.20  broadening in eV -4-tet -1-fermi 0-gaus

 Electronic relaxation 2 (details)
   IALGO  =     58    algorithm
   LDIAG  =      T    sub-space diagonalisation (order eigenvalues)
   LSUBROT=      F    optimize rotation matrix (better conditioning)
   TURBO    =      0    0=normal 1=particle mesh
   IRESTART =      0    0=no restart 2=restart with 2 vectors
   NREBOOT  =      0    no. of reboots
   NMIN     =      0    reboot dimension
   EREF     =   0.00    reference energy to select bands
   IMIX   =      4    mixing-type and parameters
     AMIX     =   0.40;   BMIX     =  1.00
     AMIX_MAG =   1.60;   BMIX_MAG =  1.00
     AMIN     =   0.10
     WC   =   100.;   INIMIX=   1;  MIXPRE=   1;  MAXMIX= -45

 Intra band minimization:
   WEIMIN = 0.0010     energy-eigenvalue tresh-hold
   EBREAK =  0.20E-08  absolut break condition
   DEPER  =   0.30     relativ break condition  

   TIME   =   0.40     timestep for ELM

  volume/ion in A,a.u.               =      12.83        86.60
  Fermi-wavevector in a.u.,A,eV,Ry     =   1.644155  3.107003 36.779896  2.703246
  Thomas-Fermi vector in A             =   2.734169
 
 Write flags
   LWAVE        =      F    write WAVECAR
   LDOWNSAMPLE  =      F    k-point downsampling of WAVECAR
   LCHARG       =      T    write CHGCAR
   LVTOT        =      F    write LOCPOT, total local potential
   LVHAR        =      F    write LOCPOT, Hartree potential only
   WRT_POTENTIAL= false  ! write potential to hdf5 file
   LELF         =      F    write electronic localiz. function (ELF)
   LORBIT       =     11    0 simple, 1 ext, 2 COOP (PROOUT), +10 PAW based schemes


 Dipole corrections
   LMONO      =      F    monopole corrections only (constant potential shift)
   LDIPOL     =      F    correct potential (dipole corrections)
   IDIPOL     =      0    1-x, 2-y, 3-z, 4-all directions 
   EPSILON    =  1.0000000 bulk dielectric constant
   LVACPOTAV  =      F  vacuum potentials using an averaging scheme for the charge density
   VACPOTFLAT =  0.1000000 required flatness to determine vacuum potential
 Exchange correlation treatment:
   GGA     = PE    functional components
   XC_C    = 1    coefficients multiplying the functional components
   LIBXC   =     F    Libxc                    
   VOSKOWN =     0    Vosko Wilk Nusair interpolation
   LHFCALC =     F    Hartree Fock is set to
   LHFONE  =     F    Hartree Fock one center treatment
   AEXX    =    0.0000 exact exchange contribution

 Parameters of functionals:
   PE:
     No parameter
 
 Van der Waals corrections
   IVDW    =     0    specifies the selected vdW correction

 Linear response parameters
   LEPSILON=     F    determine dielectric tensor
   LRPA    =     F    only Hartree local field effects (RPA)
   LNABLA  =     F    use nabla operator in PAW spheres
   LVEL    =     F    velocity operator in full k-point grid
   CSHIFT  =0.1000    complex shift for real part using Kramers Kronig
   OMEGAMAX=  -1.0    maximum frequency
   DEG_THRESHOLD= 0.2000000E-02 threshold for treating states as degnerate
   RTIME   =   -0.100 relaxation time in fs
  (WPLASMAI=    0.000 imaginary part of plasma frequency in eV, 0.658/RTIME)
   DFIELD  = 0.0000000 0.0000000 0.0000000 field for delta impulse in time
 
  Optional k-point grid parameters
   LKPOINTS_OPT  =     F    use optional k-point grid
   KPOINTS_OPT_MODE=     1    mode for optional k-point grid
 
 Orbital magnetization related:
   ORBITALMAG=     F  switch on orbital magnetization
   LCHIMAG   =     F  perturbation theory with respect to B field
   DQ        =  0.001000  dq finite difference perturbation B field
   LLRAUG    =     F  two centre corrections for induced B field
   LBONE     =     F  B-component reconstruction in AE one-centre
   LVGVCALC  =     T  calculate vGv susceptibility
   LVGVAPPL  =     F  apply vGv susceptibility instead of pGv for G=0

 Random number generation:
   RANDOM_GENERATOR = DEFAULT
   PCG_SEED         = not used


--------------------------------------------------------------------------------------------------------


 conjugate gradient relaxation of ions
 charge density and potential will be updated during run
 spin polarized calculation
 Conjugate gradient for all bands (Freysoldt, et al. PRB 79, 241103 (2009))
 preconditioned conjugated gradient                                        
 perform sub-space diagonalisation
    before iterative eigenvector-optimisation
 modified Broyden-mixing scheme, WC =      100.0
 initial mixing is a Kerker type mixing with AMIX =  0.4000 and BMIX =      1.0000
 Hartree-type preconditioning will be used
 using additional bands           50
 reciprocal scheme for non local part
 use partial core corrections
 no Harris-corrections to forces 
 use gradient corrections 
 use of overlap-Matrix (Vanderbilt PP)
 Methfessel and Paxton  Order N= 1 SIGMA  =   0.20


--------------------------------------------------------------------------------------------------------


  energy-cutoff  :      520.00
  volume of cell :      154.00
      direct lattice vectors                 reciprocal lattice vectors
     3.715379666  0.000000000  0.000000000     0.269151497  0.000000000  0.000000000
     0.000000000  3.715379666  0.000000000     0.000000000  0.269151497  0.000000000
     0.000000000  0.000000000 11.156149383     0.000000000  0.000000000  0.089636663

  length of vectors
     3.715379666  3.715379666 11.156149383     0.269151497  0.269151497  0.089636663


 
 k-points in units of 2pi/SCALE and weight: pymatgen with grid density = 8800 / numb
   0.00000000  0.00000000  0.00000000       0.001
   0.02070396  0.00000000  0.00000000       0.006
   0.04140792  0.00000000  0.00000000       0.006
   0.06211188  0.00000000  0.00000000       0.006
   0.08281585  0.00000000  0.00000000       0.006
   0.10351981  0.00000000  0.00000000       0.006
   0.12422377  0.00000000  0.00000000       0.006
   0.02070396  0.02070396  0.00000000       0.006
   0.04140792  0.02070396  0.00000000       0.012
   0.06211188  0.02070396  0.00000000       0.012
   0.08281585  0.02070396  0.00000000       0.012
   0.10351981  0.02070396  0.00000000       0.012
   0.12422377  0.02070396  0.00000000       0.012
   0.04140792  0.04140792  0.00000000       0.006
   0.06211188  0.04140792  0.00000000       0.012
   0.08281585  0.04140792  0.00000000       0.012
   0.10351981  0.04140792  0.00000000       0.012
   0.12422377  0.04140792  0.00000000       0.012
   0.06211188  0.06211188  0.00000000       0.006
   0.08281585  0.06211188  0.00000000       0.012
   0.10351981  0.06211188  0.00000000       0.012
   0.12422377  0.06211188  0.00000000       0.012
   0.08281585  0.08281585  0.00000000       0.006
   0.10351981  0.08281585  0.00000000       0.012
   0.12422377  0.08281585  0.00000000       0.012
   0.10351981  0.10351981  0.00000000       0.006
   0.12422377  0.10351981  0.00000000       0.012
   0.12422377  0.12422377  0.00000000       0.006
   0.00000000  0.00000000  0.02240917       0.003
   0.02070396  0.00000000  0.02240917       0.012
   0.04140792  0.00000000  0.02240917       0.012
   0.06211188  0.00000000  0.02240917       0.012
   0.08281585  0.00000000  0.02240917       0.012
   0.10351981  0.00000000  0.02240917       0.012
   0.12422377  0.00000000  0.02240917       0.012
   0.02070396  0.02070396  0.02240917       0.012
   0.04140792  0.02070396  0.02240917       0.024
   0.06211188  0.02070396  0.02240917       0.024
   0.08281585  0.02070396  0.02240917       0.024
   0.10351981  0.02070396  0.02240917       0.024
   0.12422377  0.02070396  0.02240917       0.024
   0.04140792  0.04140792  0.02240917       0.012
   0.06211188  0.04140792  0.02240917       0.024
   0.08281585  0.04140792  0.02240917       0.024
   0.10351981  0.04140792  0.02240917       0.024
   0.12422377  0.04140792  0.02240917       0.024
   0.06211188  0.06211188  0.02240917       0.012
   0.08281585  0.06211188  0.02240917       0.024
   0.10351981  0.06211188  0.02240917       0.024
   0.12422377  0.06211188  0.02240917       0.024
   0.08281585  0.08281585  0.02240917       0.012
   0.10351981  0.08281585  0.02240917       0.024
   0.12422377  0.08281585  0.02240917       0.024
   0.10351981  0.10351981  0.02240917       0.012
   0.12422377  0.10351981  0.02240917       0.024
   0.12422377  0.12422377  0.02240917       0.012
   0.00000000  0.00000000  0.04481833       0.001
   0.02070396  0.00000000  0.04481833       0.006
   0.04140792  0.00000000  0.04481833       0.006
   0.06211188  0.00000000  0.04481833       0.006
   0.08281585  0.00000000  0.04481833       0.006
   0.10351981  0.00000000  0.04481833       0.006
   0.12422377  0.00000000  0.04481833       0.006
   0.02070396  0.02070396  0.04481833       0.006
   0.04140792  0.02070396  0.04481833       0.012
   0.06211188  0.02070396  0.04481833       0.012
   0.08281585  0.02070396  0.04481833       0.012
   0.10351981  0.02070396  0.04481833       0.012
   0.12422377  0.02070396  0.04481833       0.012
   0.04140792  0.04140792  0.04481833       0.006
   0.06211188  0.04140792  0.04481833       0.012
   0.08281585  0.04140792  0.04481833       0.012
   0.10351981  0.04140792  0.04481833       0.012
   0.12422377  0.04140792  0.04481833       0.012
   0.06211188  0.06211188  0.04481833       0.006
   0.08281585  0.06211188  0.04481833       0.012
   0.10351981  0.06211188  0.04481833       0.012
   0.12422377  0.06211188  0.04481833       0.012
   0.08281585  0.08281585  0.04481833       0.006
   0.10351981  0.08281585  0.04481833       0.012
   0.12422377  0.08281585  0.04481833       0.012
   0.10351981  0.10351981  0.04481833       0.006
   0.12422377  0.10351981  0.04481833       0.012
   0.12422377  0.12422377  0.04481833       0.006
 
 k-points in reciprocal lattice and weights: pymatgen with grid density = 8800 / numb
   0.00000000  0.00000000  0.00000000       0.001
   0.07692308  0.00000000  0.00000000       0.006
   0.15384615  0.00000000  0.00000000       0.006
   0.23076923  0.00000000  0.00000000       0.006
   0.30769231  0.00000000  0.00000000       0.006
   0.38461538  0.00000000  0.00000000       0.006
   0.46153846  0.00000000  0.00000000       0.006
   0.07692308  0.07692308  0.00000000       0.006
   0.15384615  0.07692308  0.00000000       0.012
   0.23076923  0.07692308  0.00000000       0.012
   0.30769231  0.07692308  0.00000000       0.012
   0.38461538  0.07692308  0.00000000       0.012
   0.46153846  0.07692308  0.00000000       0.012
   0.15384615  0.15384615  0.00000000       0.006
   0.23076923  0.15384615  0.00000000       0.012
   0.30769231  0.15384615  0.00000000       0.012
   0.38461538  0.15384615  0.00000000       0.012
   0.46153846  0.15384615  0.00000000       0.012
   0.23076923  0.23076923  0.00000000       0.006
   0.30769231  0.23076923  0.00000000       0.012
   0.38461538  0.23076923  0.00000000       0.012
   0.46153846  0.23076923  0.00000000       0.012
   0.30769231  0.30769231  0.00000000       0.006
   0.38461538  0.30769231  0.00000000       0.012
   0.46153846  0.30769231  0.00000000       0.012
   0.38461538  0.38461538  0.00000000       0.006
   0.46153846  0.38461538  0.00000000       0.012
   0.46153846  0.46153846  0.00000000       0.006
   0.00000000  0.00000000  0.25000000       0.003
   0.07692308  0.00000000  0.25000000       0.012
   0.15384615  0.00000000  0.25000000       0.012
   0.23076923  0.00000000  0.25000000       0.012
   0.30769231  0.00000000  0.25000000       0.012
   0.38461538  0.00000000  0.25000000       0.012
   0.46153846  0.00000000  0.25000000       0.012
   0.07692308  0.07692308  0.25000000       0.012
   0.15384615  0.07692308  0.25000000       0.024
   0.23076923  0.07692308  0.25000000       0.024
   0.30769231  0.07692308  0.25000000       0.024
   0.38461538  0.07692308  0.25000000       0.024
   0.46153846  0.07692308  0.25000000       0.024
   0.15384615  0.15384615  0.25000000       0.012
   0.23076923  0.15384615  0.25000000       0.024
   0.30769231  0.15384615  0.25000000       0.024
   0.38461538  0.15384615  0.25000000       0.024
   0.46153846  0.15384615  0.25000000       0.024
   0.23076923  0.23076923  0.25000000       0.012
   0.30769231  0.23076923  0.25000000       0.024
   0.38461538  0.23076923  0.25000000       0.024
   0.46153846  0.23076923  0.25000000       0.024
   0.30769231  0.30769231  0.25000000       0.012
   0.38461538  0.30769231  0.25000000       0.024
   0.46153846  0.30769231  0.25000000       0.024
   0.38461538  0.38461538  0.25000000       0.012
   0.46153846  0.38461538  0.25000000       0.024
   0.46153846  0.46153846  0.25000000       0.012
   0.00000000  0.00000000  0.50000000       0.001
   0.07692308  0.00000000  0.50000000       0.006
   0.15384615  0.00000000  0.50000000       0.006
   0.23076923  0.00000000  0.50000000       0.006
   0.30769231  0.00000000  0.50000000       0.006
   0.38461538  0.00000000  0.50000000       0.006
   0.46153846  0.00000000  0.50000000       0.006
   0.07692308  0.07692308  0.50000000       0.006
   0.15384615  0.07692308  0.50000000       0.012
   0.23076923  0.07692308  0.50000000       0.012
   0.30769231  0.07692308  0.50000000       0.012
   0.38461538  0.07692308  0.50000000       0.012
   0.46153846  0.07692308  0.50000000       0.012
   0.15384615  0.15384615  0.50000000       0.006
   0.23076923  0.15384615  0.50000000       0.012
   0.30769231  0.15384615  0.50000000       0.012
   0.38461538  0.15384615  0.50000000       0.012
   0.46153846  0.15384615  0.50000000       0.012
   0.23076923  0.23076923  0.50000000       0.006
   0.30769231  0.23076923  0.50000000       0.012
   0.38461538  0.23076923  0.50000000       0.012
   0.46153846  0.23076923  0.50000000       0.012
   0.30769231  0.30769231  0.50000000       0.006
   0.38461538  0.30769231  0.50000000       0.012
   0.46153846  0.30769231  0.50000000       0.012
   0.38461538  0.38461538  0.50000000       0.006
   0.46153846  0.38461538  0.50000000       0.012
   0.46153846  0.46153846  0.50000000       0.006
 
 position of ions in fractional coordinates (direct lattice) 
   0.00000000  0.50000000  0.16668234
   0.00000000  0.50000000  0.50000000
   0.00000000  0.50000000  0.83331766
   0.50000000  0.50000000  0.00000000
   0.50000000  0.50000000  0.33325919
   0.50000000  0.50000000  0.66674081
   0.50000000  0.00000000  0.16668234
   0.50000000  0.00000000  0.50000000
   0.50000000  0.00000000  0.83331766
   0.00000000  0.00000000  0.00000000
   0.00000000  0.00000000  0.33332478
   0.00000000  0.00000000  0.66667522
 
 position of ions in cartesian coordinates  (Angst):
   0.00000000  1.85768983  1.85953306
   0.00000000  1.85768983  5.57807469
   0.00000000  1.85768983  9.29661633
   1.85768983  1.85768983  0.00000000
   1.85768983  1.85768983  3.71788933
   1.85768983  1.85768983  7.43826006
   1.85768983  0.00000000  1.85953306
   1.85768983  0.00000000  5.57807469
   1.85768983  0.00000000  9.29661633
   0.00000000  0.00000000  0.00000000
   0.00000000  0.00000000  3.71862099
   0.00000000  0.00000000  7.43752839
 


--------------------------------------------------------------------------------------------------------


 k-point     1 :   0.0000 0.0000 0.0000  plane waves:    4089
 k-point     2 :   0.0769 0.0000 0.0000  plane waves:    4117
 k-point     3 :   0.1538 0.0000 0.0000  plane waves:    4114
 k-point     4 :   0.2308 0.0000 0.0000  plane waves:    4134
 k-point     5 :   0.3077 0.0000 0.0000  plane waves:    4130
 k-point     6 :   0.3846 0.0000 0.0000  plane waves:    4146
 k-point     7 :   0.4615 0.0000 0.0000  plane waves:    4168
 k-point     8 :   0.0769 0.0769 0.0000  plane waves:    4109
 k-point     9 :   0.1538 0.0769 0.0000  plane waves:    4124
 k-point    10 :   0.2308 0.0769 0.0000  plane waves:    4142
 k-point    11 :   0.3077 0.0769 0.0000  plane waves:    4124
 k-point    12 :   0.3846 0.0769 0.0000  plane waves:    4137
 k-point    13 :   0.4615 0.0769 0.0000  plane waves:    4148
 k-point    14 :   0.1538 0.1538 0.0000  plane waves:    4120
 k-point    15 :   0.2308 0.1538 0.0000  plane waves:    4145
 k-point    16 :   0.3077 0.1538 0.0000  plane waves:    4149
 k-point    17 :   0.3846 0.1538 0.0000  plane waves:    4153
 k-point    18 :   0.4615 0.1538 0.0000  plane waves:    4155
 k-point    19 :   0.2308 0.2308 0.0000  plane waves:    4152
 k-point    20 :   0.3077 0.2308 0.0000  plane waves:    4162
 k-point    21 :   0.3846 0.2308 0.0000  plane waves:    4151
 k-point    22 :   0.4615 0.2308 0.0000  plane waves:    4148
 k-point    23 :   0.3077 0.3077 0.0000  plane waves:    4172
 k-point    24 :   0.3846 0.3077 0.0000  plane waves:    4165
 k-point    25 :   0.4615 0.3077 0.0000  plane waves:    4171
 k-point    26 :   0.3846 0.3846 0.0000  plane waves:    4162
 k-point    27 :   0.4615 0.3846 0.0000  plane waves:    4167
 k-point    28 :   0.4615 0.4615 0.0000  plane waves:    4146
 k-point    29 :   0.0000 0.0000 0.2500  plane waves:    4145
 k-point    30 :   0.0769 0.0000 0.2500  plane waves:    4129
 k-point    31 :   0.1538 0.0000 0.2500  plane waves:    4129
 k-point    32 :   0.2308 0.0000 0.2500  plane waves:    4129
 k-point    33 :   0.3077 0.0000 0.2500  plane waves:    4143
 k-point    34 :   0.3846 0.0000 0.2500  plane waves:    4134
 k-point    35 :   0.4615 0.0000 0.2500  plane waves:    4148
 k-point    36 :   0.0769 0.0769 0.2500  plane waves:    4127
 k-point    37 :   0.1538 0.0769 0.2500  plane waves:    4126
 k-point    38 :   0.2308 0.0769 0.2500  plane waves:    4135
 k-point    39 :   0.3077 0.0769 0.2500  plane waves:    4126
 k-point    40 :   0.3846 0.0769 0.2500  plane waves:    4140
 k-point    41 :   0.4615 0.0769 0.2500  plane waves:    4153
 k-point    42 :   0.1538 0.1538 0.2500  plane waves:    4132
 k-point    43 :   0.2308 0.1538 0.2500  plane waves:    4139
 k-point    44 :   0.3077 0.1538 0.2500  plane waves:    4144
 k-point    45 :   0.3846 0.1538 0.2500  plane waves:    4147
 k-point    46 :   0.4615 0.1538 0.2500  plane waves:    4157
 k-point    47 :   0.2308 0.2308 0.2500  plane waves:    4153
 k-point    48 :   0.3077 0.2308 0.2500  plane waves:    4153
 k-point    49 :   0.3846 0.2308 0.2500  plane waves:    4164
 k-point    50 :   0.4615 0.2308 0.2500  plane waves:    4154
 k-point    51 :   0.3077 0.3077 0.2500  plane waves:    4167
 k-point    52 :   0.3846 0.3077 0.2500  plane waves:    4158
 k-point    53 :   0.4615 0.3077 0.2500  plane waves:    4160
 k-point    54 :   0.3846 0.3846 0.2500  plane waves:    4164
 k-point    55 :   0.4615 0.3846 0.2500  plane waves:    4161
 k-point    56 :   0.4615 0.4615 0.2500  plane waves:    4154
 k-point    57 :   0.0000 0.0000 0.5000  plane waves:    4138
 k-point    58 :   0.0769 0.0000 0.5000  plane waves:    4140
 k-point    59 :   0.1538 0.0000 0.5000  plane waves:    4134
 k-point    60 :   0.2308 0.0000 0.5000  plane waves:    4142
 k-point    61 :   0.3077 0.0000 0.5000  plane waves:    4136
 k-point    62 :   0.3846 0.0000 0.5000  plane waves:    4132
 k-point    63 :   0.4615 0.0000 0.5000  plane waves:    4138
 k-point    64 :   0.0769 0.0769 0.5000  plane waves:    4146
 k-point    65 :   0.1538 0.0769 0.5000  plane waves:    4126
 k-point    66 :   0.2308 0.0769 0.5000  plane waves:    4134
 k-point    67 :   0.3077 0.0769 0.5000  plane waves:    4134
 k-point    68 :   0.3846 0.0769 0.5000  plane waves:    4136
 k-point    69 :   0.4615 0.0769 0.5000  plane waves:    4156
 k-point    70 :   0.1538 0.1538 0.5000  plane waves:    4138
 k-point    71 :   0.2308 0.1538 0.5000  plane waves:    4136
 k-point    72 :   0.3077 0.1538 0.5000  plane waves:    4136
 k-point    73 :   0.3846 0.1538 0.5000  plane waves:    4154
 k-point    74 :   0.4615 0.1538 0.5000  plane waves:    4158
 k-point    75 :   0.2308 0.2308 0.5000  plane waves:    4132
 k-point    76 :   0.3077 0.2308 0.5000  plane waves:    4156
 k-point    77 :   0.3846 0.2308 0.5000  plane waves:    4162
 k-point    78 :   0.4615 0.2308 0.5000  plane waves:    4156
 k-point    79 :   0.3077 0.3077 0.5000  plane waves:    4162
 k-point    80 :   0.3846 0.3077 0.5000  plane waves:    4172
 k-point    81 :   0.4615 0.3077 0.5000  plane waves:    4160
 k-point    82 :   0.3846 0.3846 0.5000  plane waves:    4158
 k-point    83 :   0.4615 0.3846 0.5000  plane waves:    4168
 k-point    84 :   0.4615 0.4615 0.5000  plane waves:    4158

 maximum and minimum number of plane-waves per node :      4172     4089

 maximum number of plane-waves:      4172
 maximum index in each direction: 
   IXMAX=    6   IYMAX=    6   IZMAX=   20
   IXMIN=   -7   IYMIN=   -7   IZMIN=  -21


 serial   3D FFT for wavefunctions
 parallel 3D FFT for charge:
    minimum data exchange during FFTs selected (reduces bandwidth)


 total amount of memory used by VASP MPI-rank0   282731. kBytes
=======================================================================

   base      :      30000. kBytes
   nonl-proj :     102217. kBytes
   fftplans  :        888. kBytes
   grid      :       6813. kBytes
   one-center:        373. kBytes
   wavefun   :     142440. kBytes
 
     INWAV:  cpu time      0.0000: real time      0.0000
 Broyden mixing: mesh for mixing (old mesh)
   NGX = 13   NGY = 13   NGZ = 41
  (NGX  = 56   NGY  = 56   NGZ  =168)
  gives a total of   6929 points

 initial charge density was supplied:
 charge density of overlapping atoms calculated
 number of electron     156.0000000 magnetization      25.3080000
 charge density for first step will be calculated from the start-wavefunctions


--------------------------------------------------------------------------------------------------------


 Maximum index for augmentation-charges         1041 (set IRDMAX)


--------------------------------------------------------------------------------------------------------


 First call to EWALD:  gamma=   0.331
 Maximum number of real-space cells 4x 4x 2
 Maximum number of reciprocal cells 2x 2x 5

    FEWALD:  cpu time      0.0016: real time      0.0016


--------------------------------------- Ionic step        1  -------------------------------------------




--------------------------------------- Iteration      1(   1)  ---------------------------------------


    POTLOK:  cpu time      0.0305: real time      0.0309
    SETDIJ:  cpu time      0.0126: real time      0.0131
    TRIAL :  cpu time      5.8774: real time      5.9231
    CORREC:  cpu time      0.0036: real time      0.0037
    --------------------------------------------
      LOOP:  cpu time      6.0289: real time      6.0995

 eigenvalue-minimisations  : 43072
 total energy-change (2. order) : 0.1769318E+04  (-0.9154318E+04)
 number of electron     156.0000000 magnetization      25.3080000
 augmentation part      156.0000000 magnetization      25.3080000

 Free energy of the ion-electron system (eV)
  ---------------------------------------------------
  alpha Z        PSCENC =      1105.13071145
  Ewald energy   TEWEN  =    -18170.29762747
  -Hartree energ DENC   =     -5952.32795238
  -exchange      EXHF   =         0.00000000
  -V(xc)+E(xc)   XCENC  =       657.87260140
  PAW double counting   =     20093.89496834   -20817.81551505
  entropy T*S    EENTRO =         0.00072136
  eigenvalues    EBANDS =       548.75679283
  atomic energy  EATOM  =     24304.10294433
  ---------------------------------------------------
  free energy    TOTEN  =      1769.31764480 eV

  energy without entropy =     1769.31692345  energy(sigma->0) =     1769.31740435


--------------------------------------------------------------------------------------------------------




--------------------------------------- Iteration      1(   2)  ---------------------------------------


    TRIAL :  cpu time      5.8029: real time      5.8436
    CORREC:  cpu time      0.0026: real time      0.0026
    --------------------------------------------
      LOOP:  cpu time      5.8209: real time      5.8684

 eigenvalue-minimisations  : 43040
 total energy-change (2. order) :-0.1762850E+04  (-0.1670549E+04)
 number of electron     156.0000000 magnetization      25.3080000
 augmentation part      156.0000000 magnetization      25.3080000

 Free energy of the ion-electron system (eV)
  ---------------------------------------------------
  alpha Z        PSCENC =      1105.13071145
  Ewald energy   TEWEN  =    -18170.29762747
  -Hartree energ DENC   =     -5952.32795238
  -exchange      EXHF   =         0.00000000
  -V(xc)+E(xc)   XCENC  =       657.87260140
  PAW double counting   =     20093.89496834   -20817.81551505
  entropy T*S    EENTRO =        -0.00250141
  eigenvalues    EBANDS =     -1214.08952783
  atomic energy  EATOM  =     24304.10294433
  ---------------------------------------------------
  free energy    TOTEN  =         6.46810138 eV

  energy without entropy =        6.47060279  energy(sigma->0) =        6.46893519


--------------------------------------------------------------------------------------------------------




--------------------------------------- Iteration      1(   3)  ---------------------------------------


    TRIAL :  cpu time      6.9333: real time      6.9810
    CORREC:  cpu time      0.0025: real time      0.0025
    --------------------------------------------
      LOOP:  cpu time      6.9579: real time      7.0061

 eigenvalue-minimisations  : 50720
 total energy-change (2. order) :-0.1090817E+03  (-0.1074236E+03)
 number of electron     156.0000000 magnetization      25.3080000
 augmentation part      156.0000000 magnetization      25.3080000

 Free energy of the ion-electron system (eV)
  ---------------------------------------------------
  alpha Z        PSCENC =      1105.13071145
  Ewald energy   TEWEN  =    -18170.29762747
  -Hartree energ DENC   =     -5952.32795238
  -exchange      EXHF   =         0.00000000
  -V(xc)+E(xc)   XCENC  =       657.87260140
  PAW double counting   =     20093.89496834   -20817.81551505
  entropy T*S    EENTRO =        -0.01843769
  eigenvalues    EBANDS =     -1323.15525458
  atomic energy  EATOM  =     24304.10294433
  ---------------------------------------------------
  free energy    TOTEN  =      -102.61356165 eV

  energy without entropy =     -102.59512397  energy(sigma->0) =     -102.60741576


--------------------------------------------------------------------------------------------------------




--------------------------------------- Iteration      1(   4)  ---------------------------------------


    TRIAL :  cpu time      6.1707: real time      6.2129
    CORREC:  cpu time      0.0024: real time      0.0025
    --------------------------------------------
      LOOP:  cpu time      6.1898: real time      6.2379

 eigenvalue-minimisations  : 45696
 total energy-change (2. order) :-0.1576672E+01  (-0.1576308E+01)
 number of electron     156.0000000 magnetization      25.3080000
 augmentation part      156.0000000 magnetization      25.3080000

 Free energy of the ion-electron system (eV)
  ---------------------------------------------------
  alpha Z        PSCENC =      1105.13071145
  Ewald energy   TEWEN  =    -18170.29762747
  -Hartree energ DENC   =     -5952.32795238
  -exchange      EXHF   =         0.00000000
  -V(xc)+E(xc)   XCENC  =       657.87260140
  PAW double counting   =     20093.89496834   -20817.81551505
  entropy T*S    EENTRO =        -0.01865104
  eigenvalues    EBANDS =     -1324.73171294
  atomic energy  EATOM  =     24304.10294433
  ---------------------------------------------------
  free energy    TOTEN  =      -104.19023337 eV

  energy without entropy =     -104.17158232  energy(sigma->0) =     -104.18401635


--------------------------------------------------------------------------------------------------------




--------------------------------------- Iteration      1(   5)  ---------------------------------------


    TRIAL :  cpu time      7.3869: real time      7.4340
    CORREC:  cpu time      0.0025: real time      0.0026
    CHARGE:  cpu time      0.1795: real time      0.1809
    --------------------------------------------
      LOOP:  cpu time      7.5847: real time      7.6398

 eigenvalue-minimisations  : 52832
 total energy-change (2. order) :-0.3009603E-01  (-0.3009516E-01)
 number of electron     156.0000345 magnetization      21.2234098
 augmentation part       79.3921303 magnetization      15.1074086

 Free energy of the ion-electron system (eV)
  ---------------------------------------------------
  alpha Z        PSCENC =      1105.13071145
  Ewald energy   TEWEN  =    -18170.29762747
  -Hartree energ DENC   =     -5952.32795238
  -exchange      EXHF   =         0.00000000
  -V(xc)+E(xc)   XCENC  =       657.87260140
  PAW double counting   =     20093.89496834   -20817.81551505
  entropy T*S    EENTRO =        -0.01865143
  eigenvalues    EBANDS =     -1324.76180858
  atomic energy  EATOM  =     24304.10294433
  ---------------------------------------------------
  free energy    TOTEN  =      -104.22032940 eV

  energy without entropy =     -104.20167797  energy(sigma->0) =     -104.21411225


--------------------------------------------------------------------------------------------------------




--------------------------------------- Iteration      1(   6)  ---------------------------------------


    POTLOK:  cpu time      0.0222: real time      0.0224
    SETDIJ:  cpu time      0.0084: real time      0.0084
    TRIAL :  cpu time      2.7365: real time      2.7659
    CORREC:  cpu time      1.1131: real time      1.1245
    CHARGE:  cpu time      0.1683: real time      0.1692
    --------------------------------------------
      LOOP:  cpu time      4.0692: real time      4.1113

 eigenvalue-minimisations  :     0
 total energy-change (2. order) : 0.4664483E+02  (-0.2933390E+02)
 number of electron     156.0000362 magnetization      22.4516279
 augmentation part       83.5645762 magnetization      16.5574489

 Free energy of the ion-electron system (eV)
  ---------------------------------------------------
  alpha Z        PSCENC =      1105.13071145
  Ewald energy   TEWEN  =    -18170.29762747
  -Hartree energ DENC   =     -4856.53252874
  -exchange      EXHF   =         0.00000000
  -V(xc)+E(xc)   XCENC  =       611.98343696
  PAW double counting   =     21235.03016202   -21903.09147023
  entropy T*S    EENTRO =         0.00866769
  eigenvalues    EBANDS =     -2383.88247195
  atomic energy  EATOM  =     24304.10294433
  ---------------------------------------------------
  free energy    TOTEN  =       -57.57549507 eV

  energy without entropy =      -57.58416276  energy(sigma->0) =      -57.57838430


--------------------------------------------------------------------------------------------------------




--------------------------------------- Iteration      1(   7)  ---------------------------------------


    POTLOK:  cpu time      0.0213: real time      0.0215
    SETDIJ:  cpu time      0.0079: real time      0.0080
    TRIAL :  cpu time      2.7567: real time      2.7837
    CORREC:  cpu time      1.1125: real time      1.1237
    CHARGE:  cpu time      0.2365: real time      0.2379
    --------------------------------------------
      LOOP:  cpu time      4.1514: real time      4.1978

 eigenvalue-minimisations  :     0
 total energy-change (2. order) :-0.2954049E+02  (-0.4213006E+01)
 number of electron     156.0000363 magnetization      23.4677184
 augmentation part       84.5742189 magnetization      17.5042966

 Free energy of the ion-electron system (eV)
  ---------------------------------------------------
  alpha Z        PSCENC =      1105.13071145
  Ewald energy   TEWEN  =    -18170.29762747
  -Hartree energ DENC   =     -5446.65468014
  -exchange      EXHF   =         0.00000000
  -V(xc)+E(xc)   XCENC  =       636.64085890
  PAW double counting   =     22061.97247596   -22841.80813011
  entropy T*S    EENTRO =         0.02099811
  eigenvalues    EBANDS =     -1736.21120467
  atomic energy  EATOM  =     24304.10294433
  ---------------------------------------------------
  free energy    TOTEN  =       -87.11598405 eV

  energy without entropy =      -87.13698216  energy(sigma->0) =      -87.12298342


--------------------------------------------------------------------------------------------------------




--------------------------------------- Iteration      1(   8)  ---------------------------------------


    POTLOK:  cpu time      0.0224: real time      0.0227
    SETDIJ:  cpu time      0.0076: real time      0.0076
    TRIAL :  cpu time      2.7159: real time      2.7422
    CORREC:  cpu time      1.1029: real time      1.1142
    CHARGE:  cpu time      0.1671: real time      0.1680
    --------------------------------------------
      LOOP:  cpu time      4.0366: real time      4.0799

 eigenvalue-minimisations  :     0
 total energy-change (2. order) :-0.4212100E+01  (-0.4833878E+00)
 number of electron     156.0000363 magnetization      23.6092970
 augmentation part       84.6798181 magnetization      17.6343027

 Free energy of the ion-electron system (eV)
  ---------------------------------------------------
  alpha Z        PSCENC =      1105.13071145
  Ewald energy   TEWEN  =    -18170.29762747
  -Hartree energ DENC   =     -5563.21347408
  -exchange      EXHF   =         0.00000000
  -V(xc)+E(xc)   XCENC  =       642.45242279
  PAW double counting   =     22330.89688098   -23108.43301426
  entropy T*S    EENTRO =         0.02324597
  eigenvalues    EBANDS =     -1631.98792589
  atomic energy  EATOM  =     24304.10294433
  ---------------------------------------------------
  free energy    TOTEN  =       -91.32808402 eV

  energy without entropy =      -91.35132999  energy(sigma->0) =      -91.33583268


--------------------------------------------------------------------------------------------------------




--------------------------------------- Iteration      1(   9)  ---------------------------------------


    POTLOK:  cpu time      0.0215: real time      0.0217
    SETDIJ:  cpu time      0.0079: real time      0.0080
    TRIAL :  cpu time      2.7134: real time      2.7405
    CORREC:  cpu time      1.1100: real time      1.1212
    CHARGE:  cpu time      0.1597: real time      0.1606
    --------------------------------------------
      LOOP:  cpu time      4.0297: real time      4.0747

 eigenvalue-minimisations  :     0
 total energy-change (2. order) :-0.4603831E+00  (-0.1151815E+01)
 number of electron     156.0000362 magnetization      24.1812524
 augmentation part       84.8175648 magnetization      18.1258400

 Free energy of the ion-electron system (eV)
  ---------------------------------------------------
  alpha Z        PSCENC =      1105.13071145
  Ewald energy   TEWEN  =    -18170.29762747
  -Hartree energ DENC   =     -5575.04433848
  -exchange      EXHF   =         0.00000000
  -V(xc)+E(xc)   XCENC  =       643.07921284
  PAW double counting   =     22361.53949097   -23137.60054996
  entropy T*S    EENTRO =         0.02570394
  eigenvalues    EBANDS =     -1622.72155679
  atomic energy  EATOM  =     24304.10294433
  ---------------------------------------------------
  free energy    TOTEN  =       -91.78846714 eV

  energy without entropy =      -91.81417108  energy(sigma->0) =      -91.79703512


--------------------------------------------------------------------------------------------------------




--------------------------------------- Iteration      1(  10)  ---------------------------------------


    POTLOK:  cpu time      0.0216: real time      0.0218
    SETDIJ:  cpu time      0.0080: real time      0.0081
    TRIAL :  cpu time      2.7956: real time      2.8221
    CORREC:  cpu time      1.1040: real time      1.1149
    CHARGE:  cpu time      0.1630: real time      0.1639
    --------------------------------------------
      LOOP:  cpu time      4.1098: real time      4.1535

 eigenvalue-minimisations  :     0
 total energy-change (2. order) :-0.1157844E+01  (-0.2175130E+00)
 number of electron     156.0000362 magnetization      24.2775661
 augmentation part       84.8563343 magnetization      18.2151944

 Free energy of the ion-electron system (eV)
  ---------------------------------------------------
  alpha Z        PSCENC =      1105.13071145
  Ewald energy   TEWEN  =    -18170.29762747
  -Hartree energ DENC   =     -5592.92566167
  -exchange      EXHF   =         0.00000000
  -V(xc)+E(xc)   XCENC  =       644.10544744
  PAW double counting   =     22340.22786163   -23101.91946445
  entropy T*S    EENTRO =         0.02464713
  eigenvalues    EBANDS =     -1621.39622618
  atomic energy  EATOM  =     24304.10294433
  ---------------------------------------------------
  free energy    TOTEN  =       -92.94631099 eV

  energy without entropy =      -92.97095812  energy(sigma->0) =      -92.95452670


--------------------------------------------------------------------------------------------------------




--------------------------------------- Iteration      1(  11)  ---------------------------------------


    POTLOK:  cpu time      0.0215: real time      0.0217
    SETDIJ:  cpu time      0.0079: real time      0.0080
    TRIAL :  cpu time      2.7880: real time      2.8154
    CORREC:  cpu time      1.1514: real time      1.1629
    CHARGE:  cpu time      0.1595: real time      0.1604
    --------------------------------------------
      LOOP:  cpu time      4.1455: real time      4.1909

 eigenvalue-minimisations  :     0
 total energy-change (2. order) :-0.2091369E+00  (-0.1294183E+00)
 number of electron     156.0000362 magnetization      24.3524892
 augmentation part       84.9059662 magnetization      18.2886500

 Free energy of the ion-electron system (eV)
  ---------------------------------------------------
  alpha Z        PSCENC =      1105.13071145
  Ewald energy   TEWEN  =    -18170.29762747
  -Hartree energ DENC   =     -5598.92994624
  -exchange      EXHF   =         0.00000000
  -V(xc)+E(xc)   XCENC  =       644.39138925
  PAW double counting   =     22338.08024052   -23097.80055680
  entropy T*S    EENTRO =         0.02302647
  eigenvalues    EBANDS =     -1617.85725007
  atomic energy  EATOM  =     24304.10294433
  ---------------------------------------------------
  free energy    TOTEN  =       -93.15544790 eV

  energy without entropy =      -93.17847437  energy(sigma->0) =      -93.16312339


--------------------------------------------------------------------------------------------------------




--------------------------------------- Iteration      1(  12)  ---------------------------------------


    POTLOK:  cpu time      0.0216: real time      0.0218
    SETDIJ:  cpu time      0.0077: real time      0.0077
    TRIAL :  cpu time      2.7822: real time      2.8092
    CORREC:  cpu time      1.1990: real time      1.2106
    CHARGE:  cpu time      0.1590: real time      0.1598
    --------------------------------------------
      LOOP:  cpu time      4.1852: real time      4.2314

 eigenvalue-minimisations  :     0
 total energy-change (2. order) :-0.1275299E+00  (-0.1032696E+00)
 number of electron     156.0000362 magnetization      24.4587469
 augmentation part       84.9749923 magnetization      18.3949786

 Free energy of the ion-electron system (eV)
  ---------------------------------------------------
  alpha Z        PSCENC =      1105.13071145
  Ewald energy   TEWEN  =    -18170.29762747
  -Hartree energ DENC   =     -5607.24515903
  -exchange      EXHF   =         0.00000000
  -V(xc)+E(xc)   XCENC  =       644.75308648
  PAW double counting   =     22336.69790522   -23096.33174296
  entropy T*S    EENTRO =         0.01904283
  eigenvalues    EBANDS =     -1610.11612231
  atomic energy  EATOM  =     24304.10294433
  ---------------------------------------------------
  free energy    TOTEN  =       -93.28297782 eV

  energy without entropy =      -93.30202065  energy(sigma->0) =      -93.28932543


--------------------------------------------------------------------------------------------------------




--------------------------------------- Iteration      1(  13)  ---------------------------------------


    POTLOK:  cpu time      0.0220: real time      0.0222
    SETDIJ:  cpu time      0.0078: real time      0.0078
    TRIAL :  cpu time      2.8196: real time      2.8473
    CORREC:  cpu time      1.1074: real time      1.1188
    CHARGE:  cpu time      0.1601: real time      0.1611
    --------------------------------------------
      LOOP:  cpu time      4.1335: real time      4.1795

 eigenvalue-minimisations  :     0
 total energy-change (2. order) :-0.1028358E+00  (-0.2963989E-01)
 number of electron     156.0000362 magnetization      24.5069377
 augmentation part       84.9898840 magnetization      18.4414557

 Free energy of the ion-electron system (eV)
  ---------------------------------------------------
  alpha Z        PSCENC =      1105.13071145
  Ewald energy   TEWEN  =    -18170.29762747
  -Hartree energ DENC   =     -5617.98732942
  -exchange      EXHF   =         0.00000000
  -V(xc)+E(xc)   XCENC  =       645.25052592
  PAW double counting   =     22329.98343173   -23091.18157095
  entropy T*S    EENTRO =         0.01756009
  eigenvalues    EBANDS =     -1598.40594200
  atomic energy  EATOM  =     24304.10294433
  ---------------------------------------------------
  free energy    TOTEN  =       -93.38581358 eV

  energy without entropy =      -93.40337367  energy(sigma->0) =      -93.39166694


--------------------------------------------------------------------------------------------------------




--------------------------------------- Iteration      1(  14)  ---------------------------------------


    POTLOK:  cpu time      0.0215: real time      0.0218
    SETDIJ:  cpu time      0.0075: real time      0.0075
    TRIAL :  cpu time      2.7178: real time      2.7450
    CORREC:  cpu time      1.1215: real time      1.1334
    CHARGE:  cpu time      0.1606: real time      0.1615
    --------------------------------------------
      LOOP:  cpu time      4.0477: real time      4.0920

 eigenvalue-minimisations  :     0
 total energy-change (2. order) :-0.2888450E-01  (-0.2867913E-01)
 number of electron     156.0000361 magnetization      24.6154028
 augmentation part       84.9832843 magnetization      18.5432249

 Free energy of the ion-electron system (eV)
  ---------------------------------------------------
  alpha Z        PSCENC =      1105.13071145
  Ewald energy   TEWEN  =    -18170.29762747
  -Hartree energ DENC   =     -5619.50907955
  -exchange      EXHF   =         0.00000000
  -V(xc)+E(xc)   XCENC  =       645.35719669
  PAW double counting   =     22324.22419723   -23085.78177868
  entropy T*S    EENTRO =         0.01471520
  eigenvalues    EBANDS =     -1596.65882216
  atomic energy  EATOM  =     24304.10294433
  ---------------------------------------------------
  free energy    TOTEN  =       -93.41469808 eV

  energy without entropy =      -93.42941328  energy(sigma->0) =      -93.41960315


--------------------------------------------------------------------------------------------------------




--------------------------------------- Iteration      1(  15)  ---------------------------------------


    POTLOK:  cpu time      0.0220: real time      0.0222
    SETDIJ:  cpu time      0.0068: real time      0.0068
    TRIAL :  cpu time      2.8167: real time      2.8442
    CORREC:  cpu time      1.1097: real time      1.1217
    CHARGE:  cpu time      0.1585: real time      0.1595
    --------------------------------------------
      LOOP:  cpu time      4.1317: real time      4.1772

 eigenvalue-minimisations  :     0
 total energy-change (2. order) :-0.2856449E-01  (-0.1275706E-01)
 number of electron     156.0000361 magnetization      24.6837513
 augmentation part       84.9785448 magnetization      18.6129002

 Free energy of the ion-electron system (eV)
  ---------------------------------------------------
  alpha Z        PSCENC =      1105.13071145
  Ewald energy   TEWEN  =    -18170.29762747
  -Hartree energ DENC   =     -5614.91840726
  -exchange      EXHF   =         0.00000000
  -V(xc)+E(xc)   XCENC  =       645.30998750
  PAW double counting   =     22305.99689956   -23067.33458911
  entropy T*S    EENTRO =         0.01307030
  eigenvalues    EBANDS =     -1601.44789677
  atomic energy  EATOM  =     24304.10294433
  ---------------------------------------------------
  free energy    TOTEN  =       -93.44326257 eV

  energy without entropy =      -93.45633288  energy(sigma->0) =      -93.44761934


--------------------------------------------------------------------------------------------------------




--------------------------------------- Iteration      1(  16)  ---------------------------------------


    POTLOK:  cpu time      0.0211: real time      0.0213
    SETDIJ:  cpu time      0.0078: real time      0.0078
    TRIAL :  cpu time      2.8017: real time      2.8296
    CORREC:  cpu time      1.1111: real time      1.1230
    CHARGE:  cpu time      0.1626: real time      0.1636
    --------------------------------------------
      LOOP:  cpu time      4.1216: real time      4.1685

 eigenvalue-minimisations  :     0
 total energy-change (2. order) :-0.1260034E-01  (-0.1219216E-01)
 number of electron     156.0000361 magnetization      24.7626630
 augmentation part       84.9774247 magnetization      18.7008212

 Free energy of the ion-electron system (eV)
  ---------------------------------------------------
  alpha Z        PSCENC =      1105.13071145
  Ewald energy   TEWEN  =    -18170.29762747
  -Hartree energ DENC   =     -5612.09470784
  -exchange      EXHF   =         0.00000000
  -V(xc)+E(xc)   XCENC  =       645.28658110
  PAW double counting   =     22298.59285020   -23059.84907911
  entropy T*S    EENTRO =         0.01123856
  eigenvalues    EBANDS =     -1604.34060588
  atomic energy  EATOM  =     24304.10294433
  ---------------------------------------------------
  free energy    TOTEN  =       -93.45586291 eV

  energy without entropy =      -93.46710147  energy(sigma->0) =      -93.45960910


--------------------------------------------------------------------------------------------------------




--------------------------------------- Iteration      1(  17)  ---------------------------------------


    POTLOK:  cpu time      0.0211: real time      0.0213
    SETDIJ:  cpu time      0.0092: real time      0.0093
    TRIAL :  cpu time      2.8032: real time      2.8308
    CORREC:  cpu time      1.1181: real time      1.1299
    CHARGE:  cpu time      0.1625: real time      0.1634
    --------------------------------------------
      LOOP:  cpu time      4.1310: real time      4.1777

 eigenvalue-minimisations  :     0
 total energy-change (2. order) :-0.1205015E-01  (-0.1110218E-01)
 number of electron     156.0000361 magnetization      24.8550907
[...]
     78      11.2174     -0.00000
     79      11.2177     -0.00000
     80      11.2421     -0.00000
     81      11.2426     -0.00000
     82      11.4531     -0.00000
     83      11.4536     -0.00000
     84      11.7085     -0.00000
     85      11.7488     -0.00000
     86      11.8589     -0.00000
     87      11.8708     -0.00000
     88      11.9255     -0.00000
     89      11.9735     -0.00000
     90      12.0251     -0.00000
     91      12.0270     -0.00000
     92      12.4646     -0.00000
     93      12.4662     -0.00000
     94      12.8885     -0.00000
     95      12.8898     -0.00000
     96      12.9127     -0.00000
     97      12.9141     -0.00000
     98      13.4023     -0.00000
     99      13.4033     -0.00000
    100      15.8379      0.00000
    101      17.7102      0.00000
    102      17.7773      0.00000
    103      17.8227      0.00000
    104      18.6701      0.00000
    105      18.6715      0.00000
    106      19.3519      0.00000
    107      19.3530      0.00000
    108      19.9011      0.00000
    109      19.9017      0.00000
    110      20.4017      0.00000
    111      20.4022      0.00000
    112      24.7869      0.00000
    113      24.7894      0.00000
    114      25.2655      0.00000
    115      25.2665      0.00000
    116      25.6105      0.00000
    117      25.6121      0.00000
    118      26.4892      0.00000
    119      26.4908      0.00000
    120      27.4882      0.00000
    121      27.4939      0.00000
    122      27.5429      0.00000
    123      27.9471      0.00000
    124      28.9772      0.00000
    125      28.9780      0.00000
    126      29.3973      0.00000
    127      29.3973      0.00000
    128      30.0581      0.00000


--------------------------------------------------------------------------------------------------------


 soft charge-density along one line, spin component           1
         0         1         2         3         4         5         6         7         8         9
 total charge-density along one line
 
 soft charge-density along one line, spin component           2
         0         1         2         3         4         5         6         7         8         9
 total charge-density along one line
 
 pseudopotential strength for first ion, spin component:           1
-44.995   0.000  -0.000   7.624  -0.000   0.000   0.000  -0.000
  0.000 -44.995   0.000  -0.000   7.624  -0.000  -0.000  -0.000
 -0.000   0.000 -44.890   0.000  -0.000   7.581  -0.000  -0.000
  7.624  -0.000   0.000   5.631  -0.000   0.000  -0.000   0.000
 -0.000   7.624  -0.000  -0.000   5.631  -0.000   0.000   0.000
  0.000  -0.000   7.581   0.000  -0.000   5.639   0.000   0.000
  0.000  -0.000  -0.000  -0.000   0.000   0.000  -2.065   0.000
 -0.000  -0.000  -0.000   0.000   0.000   0.000   0.000  -2.146
  0.000  -0.000  -0.000  -0.000   0.000   0.000   0.000   0.000
 -0.000   0.000  -0.000   0.000  -0.000   0.000   0.000  -0.000
  0.000  -0.000   0.000  -0.000   0.000  -0.000   0.000  -0.000
  0.000  -0.000  -0.000  -0.000   0.000   0.000  -2.579   0.000
 -0.000  -0.000  -0.000   0.000   0.000   0.000   0.000  -2.658
  0.000  -0.000  -0.000  -0.000   0.000   0.000   0.000   0.000
 -0.000   0.000  -0.000   0.000  -0.000   0.000   0.000  -0.000
  0.000  -0.000   0.000  -0.000   0.000  -0.000   0.000  -0.000
  0.000   0.000  -0.000   0.000  -0.000  -0.000   0.000  -0.000
  0.000   0.000  -0.000   0.000   0.000  -0.000   0.000  -0.000
 pseudopotential strength for first ion, spin component:           2
-42.653   0.000  -0.000   6.638  -0.000   0.000   0.000  -0.000
  0.000 -42.653   0.000  -0.000   6.638  -0.000  -0.000  -0.000
 -0.000   0.000 -42.609   0.000  -0.000   6.619  -0.000  -0.000
  6.638  -0.000   0.000   5.907  -0.000   0.000  -0.000   0.000
 -0.000   6.638  -0.000  -0.000   5.907  -0.000   0.000   0.000
  0.000  -0.000   6.619   0.000  -0.000   5.911   0.000   0.000
  0.000  -0.000  -0.000  -0.000   0.000   0.000  -0.213   0.000
 -0.000  -0.000  -0.000   0.000   0.000   0.000   0.000  -0.235
  0.000  -0.000  -0.000  -0.000   0.000   0.000   0.000   0.000
 -0.000   0.000  -0.000   0.000  -0.000   0.000   0.000  -0.000
  0.000  -0.000   0.000  -0.000  -0.000  -0.000   0.000  -0.000
  0.000  -0.000  -0.000  -0.000   0.000   0.000  -0.757   0.000
 -0.000  -0.000  -0.000   0.000   0.000   0.000   0.000  -0.779
  0.000  -0.000  -0.000  -0.000   0.000   0.000   0.000   0.000
 -0.000   0.000  -0.000   0.000  -0.000   0.000   0.000  -0.000
  0.000  -0.000   0.000  -0.000  -0.000  -0.000   0.000  -0.000
  0.000   0.000  -0.000   0.000  -0.000  -0.000   0.000  -0.000
  0.000   0.000  -0.000   0.000  -0.000  -0.000   0.000  -0.000
 total augmentation occupancy for first ion, spin component:           1
  1.992   0.000   0.000  -0.026   0.000   0.000   0.000  -0.000   0.000   0.000   0.000   0.000  -0.000   0.000   0.000   0.000
  0.000   1.992  -0.000  -0.000  -0.026   0.000   0.000   0.000  -0.000  -0.000  -0.000   0.000   0.000   0.000   0.000   0.000
  0.000  -0.000   1.992   0.000   0.000  -0.026   0.000  -0.000  -0.000  -0.000   0.000   0.000   0.000   0.000   0.000   0.000
 -0.026  -0.000   0.000   0.185   0.000   0.000   0.000   0.000  -0.000   0.000   0.000   0.000  -0.000   0.000   0.000   0.000
  0.000  -0.026   0.000   0.000   0.185   0.000   0.000   0.000   0.000   0.000  -0.000   0.000  -0.000  -0.000  -0.000   0.000
  0.000   0.000  -0.026   0.000   0.000   0.165   0.000   0.000  -0.000   0.000   0.000   0.000   0.000   0.000  -0.000   0.000
  0.000   0.000   0.000   0.000   0.000   0.000   3.007  -0.000   0.000   0.000   0.000  -1.714   0.000   0.000   0.000  -0.000
 -0.000   0.000  -0.000   0.000   0.000   0.000  -0.000   3.362  -0.000   0.000  -0.000   0.000  -2.301   0.000   0.000   0.000
  0.000  -0.000  -0.000  -0.000   0.000  -0.000   0.000  -0.000   3.438   0.000   0.168   0.000   0.000  -2.033   0.000  -0.092
  0.000  -0.000  -0.000   0.000   0.000   0.000   0.000   0.000   0.000   3.010   0.000   0.000   0.000   0.000  -1.716   0.000
  0.000  -0.000   0.000   0.000  -0.000   0.000   0.000  -0.000   0.168   0.000   3.241   0.000   0.000  -0.092  -0.000  -1.925
  0.000   0.000   0.000   0.000   0.000   0.000  -1.714   0.000   0.000   0.000   0.000   1.828  -0.000   0.000  -0.000   0.000
 -0.000   0.000   0.000  -0.000  -0.000   0.000   0.000  -2.301   0.000   0.000   0.000  -0.000   2.550  -0.000   0.000  -0.000
  0.000   0.000   0.000   0.000  -0.000   0.000   0.000   0.000  -2.033   0.000  -0.092   0.000  -0.000   1.895  -0.000   0.017
  0.000   0.000   0.000   0.000  -0.000  -0.000   0.000   0.000   0.000  -1.716  -0.000  -0.000   0.000  -0.000   1.829  -0.000
  0.000   0.000   0.000   0.000   0.000   0.000  -0.000   0.000  -0.092   0.000  -1.925   0.000  -0.000   0.017  -0.000   1.872
 -0.000  -0.000   0.000   0.000  -0.000  -0.000  -0.000   0.000  -0.106  -0.000   0.185   0.000   0.000   0.078   0.000  -0.136
  0.000  -0.000   0.000  -0.000   0.000   0.000   0.000  -0.000   0.007   0.000  -0.012   0.000   0.000  -0.005   0.000   0.008
 total augmentation occupancy for first ion, spin component:           2
 -0.002   0.000   0.000  -0.009   0.000   0.000   0.000   0.000   0.000   0.000   0.000   0.000  -0.000   0.000   0.000   0.000
  0.000  -0.002   0.000   0.000  -0.009   0.000   0.000  -0.000   0.000   0.000   0.000   0.000   0.000  -0.000   0.000  -0.000
  0.000   0.000  -0.002   0.000   0.000  -0.010   0.000   0.000   0.000   0.000   0.000   0.000  -0.000  -0.000  -0.000   0.000
 -0.009   0.000   0.000  -0.005   0.000  -0.000  -0.000   0.000   0.000   0.000   0.000  -0.000  -0.000   0.000   0.000   0.000
  0.000  -0.009   0.000   0.000  -0.005   0.000  -0.000  -0.000   0.000  -0.000  -0.000   0.000   0.000  -0.000   0.000   0.000
  0.000   0.000  -0.010  -0.000   0.000  -0.011  -0.000   0.000   0.000   0.000  -0.000   0.000   0.000  -0.000  -0.000  -0.000
  0.000   0.000   0.000  -0.000  -0.000  -0.000   2.425   0.000   0.000  -0.000  -0.000  -1.062   0.000   0.000   0.000  -0.000
  0.000  -0.000   0.000   0.000  -0.000   0.000   0.000   2.438   0.000  -0.000   0.000   0.000  -0.986   0.000   0.000  -0.000
  0.000   0.000   0.000   0.000   0.000   0.000   0.000   0.000   2.755  -0.000   0.093   0.000  -0.000  -1.168   0.000  -0.092
  0.000   0.000   0.000   0.000  -0.000   0.000  -0.000  -0.000  -0.000   2.427   0.000   0.000  -0.000   0.000  -1.062  -0.000
  0.000   0.000   0.000   0.000  -0.000  -0.000  -0.000   0.000   0.093   0.000   2.646   0.000   0.000  -0.092  -0.000  -1.060
  0.000   0.000   0.000  -0.000   0.000   0.000  -1.062   0.000   0.000   0.000   0.000   0.259   0.000   0.000  -0.000   0.000
 -0.000   0.000  -0.000  -0.000   0.000   0.000   0.000  -0.986  -0.000  -0.000   0.000   0.000   0.141   0.000   0.000  -0.000
  0.000  -0.000  -0.000   0.000  -0.000  -0.000   0.000   0.000  -1.168   0.000  -0.092   0.000   0.000   0.353  -0.000   0.107
  0.000   0.000  -0.000   0.000   0.000  -0.000   0.000   0.000   0.000  -1.062  -0.000  -0.000   0.000  -0.000   0.259   0.000
  0.000  -0.000   0.000   0.000   0.000  -0.000  -0.000  -0.000  -0.092  -0.000  -1.060   0.000  -0.000   0.107   0.000   0.229
  0.000   0.000   0.000  -0.000   0.000   0.000   0.000  -0.000  -0.031  -0.000   0.056   0.000   0.000   0.031   0.000  -0.056
  0.000  -0.000   0.000  -0.000  -0.000   0.000   0.000   0.000   0.003   0.000  -0.004   0.000   0.000  -0.000   0.000   0.001


------------------------ aborting loop because EDIFF is reached ----------------------------------------





 total charge

# of ion       s       p       d       tot
------------------------------------------
    1        0.350   6.333   6.031  12.714
    2        0.350   6.332   6.031  12.714
    3        0.350   6.333   6.031  12.714
    4        0.350   6.333   6.032  12.715
    5        0.350   6.332   6.031  12.714
    6        0.350   6.332   6.031  12.714
    7        0.350   6.333   6.031  12.714
    8        0.350   6.332   6.031  12.714
    9        0.350   6.333   6.031  12.714
   10        0.768   0.714   8.049   9.530
   11        0.768   0.713   8.049   9.529
   12        0.768   0.713   8.049   9.529
--------------------------------------------------
tot          5.457  59.132  78.427 143.016



 magnetization (x)

# of ion       s       p       d       tot
------------------------------------------
    1       -0.002  -0.016   2.728   2.709
    2       -0.002  -0.016   2.729   2.710
    3       -0.002  -0.016   2.728   2.709
    4       -0.002  -0.017   2.727   2.708
    5       -0.002  -0.017   2.729   2.710
    6       -0.002  -0.017   2.729   2.710
    7       -0.002  -0.016   2.728   2.709
    8       -0.002  -0.016   2.729   2.710
    9       -0.002  -0.016   2.728   2.709
   10       -0.041  -0.100   0.449   0.308
   11       -0.041  -0.100   0.449   0.308
   12       -0.041  -0.100   0.449   0.308
--------------------------------------------------
tot         -0.145  -0.448  25.902  25.309
 
    FORLOC:  cpu time      0.0009: real time      0.0009
    FORNL :  cpu time      0.7146: real time      0.7184
    STRESS:  cpu time      4.4157: real time      4.4514
    FORCOR:  cpu time      0.0204: real time      0.0205
    OFIELD:  cpu time      0.0002: real time      0.0002

  FORCE on cell =-STRESS in cart. coord.  units (eV):
  Direction    XX          YY          ZZ          XY          YZ          ZX
  --------------------------------------------------------------------------------------
  Alpha Z  1105.13071  1105.13071  1105.13071
  Ewald   -6056.43503 -6056.43503 -6057.44456     0.00000    -0.00000    -0.00000
  Hartree  1870.36294  1870.36294  1869.83496    -0.00000    -0.00000    -0.00000
  E(xc)    -945.10571  -945.10571  -945.10704     0.00000    -0.00000     0.00000
  Local    1107.91248  1107.91248  1109.20387    -0.00000    -0.00000    -0.00000
  n-local  -211.52650  -225.76377  -218.53780    15.19742    -0.09664    -0.07405
  augment  1438.58044  1438.58044  1438.63097    -0.00000     0.00000    -0.00000
  Kinetic  1703.73135  1697.86724  1700.89023     1.39097     0.21581     0.77489
  Fock        0.00000     0.00000     0.00000     0.00000     0.00000     0.00000
  -------------------------------------------------------------------------------------
  Total       2.60000     2.60000     2.60134     0.00000     0.00000     0.00000
  in kB      27.04972    27.04972    27.06364     0.00000     0.00000     0.00000
  external pressure =       27.05 kB  Pullay stress =        0.00 kB


 VOLUME and BASIS-vectors are now :
 -----------------------------------------------------------------------------
  energy-cutoff  :      520.00
  volume of cell :      154.00
      direct lattice vectors                 reciprocal lattice vectors
     3.715363490  0.000000000 -0.000000000     0.269152669  0.000000000 -0.000000000
     0.000000000  3.715363490  0.000000000     0.000000000  0.269152669  0.000000000
     0.000000000  0.000000000 11.156246530     0.000000000  0.000000000  0.089635882

  length of vectors
     3.715363490  3.715363490 11.156246530     0.269152669  0.269152669  0.089635882


 FORCES acting on ions:
    Electron-Ion                     Ewald-Force                    Non-Local-Force
 -----------------------------------------------------------------------------------------------
   0.204E-11 -.396E-11 -.147E+01   0.264E-13 0.127E-13 0.146E+01   -.124E-21 -.394E-21 0.722E-02
   0.203E-11 -.316E-11 0.115E-10   -.115E-13 -.126E-13 0.227E-12   -.157E-24 -.169E-24 -.549E-24
   0.203E-11 0.115E-10 0.147E+01   -.448E-14 -.177E-13 -.146E+01   0.610E-22 0.398E-21 -.722E-02
   0.977E-12 0.782E-11 0.464E-11   0.963E-14 -.217E-13 -.341E-12   0.112E-23 0.112E-23 -.308E-24
   0.974E-12 -.453E-11 -.141E+01   0.426E-13 0.119E-13 0.141E+01   -.596E-20 0.152E-20 0.583E-02
   0.974E-12 -.510E-11 0.141E+01   0.454E-13 0.202E-13 -.141E+01   0.590E-20 -.148E-20 -.583E-02
   0.975E-12 0.120E-11 -.147E+01   -.119E-13 0.801E-14 0.146E+01   0.348E-20 0.990E-21 0.722E-02
   0.977E-12 -.963E-11 0.573E-11   -.630E-14 -.206E-13 0.398E-12   0.776E-25 -.341E-25 -.547E-24
   0.976E-12 0.135E-11 0.147E+01   -.918E-14 0.183E-14 -.146E+01   -.345E-20 -.106E-20 -.722E-02
   0.216E-12 0.170E-11 0.415E-11   -.170E-13 0.702E-14 -.227E-12   -.546E-25 0.604E-25 -.122E-23
   0.217E-12 0.272E-11 -.698E+00   -.148E-13 0.155E-13 0.697E+00   0.626E-20 -.219E-20 -.222E-02
   0.217E-12 0.182E-11 0.698E+00   0.223E-14 0.268E-14 -.697E+00   -.381E-21 -.219E-20 0.222E-02
 -----------------------------------------------------------------------------------------------
   0.127E-10 0.207E-11 0.391E-10   0.512E-13 0.740E-14 0.734E-13   0.578E-20 -.440E-20 0.000E+00
 
 
 POSITION                                       TOTAL-FORCE (eV/Angst)
 -----------------------------------------------------------------------------------
      3.71536      1.85768      1.85876        -0.000000      0.000000     -0.002789
      3.71536      1.85768      5.57812         0.000000     -0.000000     -0.000000
      3.71536      1.85768      9.29749         0.000000      0.000000      0.002789
      1.85768      1.85768     -0.00000        -0.000000     -0.000000     -0.000000
      1.85768      1.85768      3.71795         0.000000     -0.000000      0.000443
      1.85768      1.85768      7.43830        -0.000000     -0.000000     -0.000443
      1.85768      3.71536      1.85876        -0.000000     -0.000000     -0.002789
      1.85768      3.71536      5.57812        -0.000000     -0.000000     -0.000000
      1.85768      3.71536      9.29749         0.000000     -0.000000      0.002789
      3.71536      3.71536     -0.00000         0.000000     -0.000000     -0.000000
      3.71536      3.71536      3.71865        -0.000000     -0.000000     -0.003125
      3.71536      3.71536      7.43760         0.000000     -0.000000      0.003125
 -----------------------------------------------------------------------------------
    total drift:                                0.000000      0.000000      0.000000


--------------------------------------------------------------------------------------------------------



  FREE ENERGIE OF THE ION-ELECTRON SYSTEM (eV)
  ---------------------------------------------------
  free  energy   TOTEN  =       -93.50414336 eV

  energy  without entropy=      -93.50831943  energy(sigma->0) =      -93.50553538
 
 d Force = 0.3056809E-04[ 0.889E-05, 0.522E-04]  d Energy =-0.1711887E-05 0.323E-04
 d Force =-0.1796393E-02[-0.456E-02, 0.963E-03]  d Ewald  =-0.1805070E-02 0.868E-05


--------------------------------------------------------------------------------------------------------


    POTLOK:  cpu time      0.0296: real time      0.0298


--------------------------------------------------------------------------------------------------------


 Steepest descent step on ions:
 trial-energy change:    0.000002  1 .order   -0.000031   -0.000052   -0.000009
  (g-gl).g = 0.523E-04      g.g   = 0.523E-04  gl.gl    = 0.000E+00
 g(Force)  = 0.522E-04   g(Stress)= 0.283E-07 ortho     = 0.000E+00
 gamma     =   0.00000
 trial     =   1.00000
 opt step  =   1.20537  (harmonic =   1.20537) maximal distance =0.00095655
 next E    =   -93.504177   (d E  =  -0.00003)


--------------------------------------------------------------------------------------------------------


  
 reached required accuracy - stopping structural energy minimisation
     LOOP+:  cpu time     51.4736: real time     52.0442
    4ORBIT:  cpu time      0.0000: real time      0.0000



 total charge

# of ion       s       p       d       tot
------------------------------------------
    1        0.350   6.333   6.031  12.714
    2        0.350   6.332   6.031  12.714
    3        0.350   6.333   6.031  12.714
    4        0.350   6.333   6.032  12.715
    5        0.350   6.332   6.031  12.714
    6        0.350   6.332   6.031  12.714
    7        0.350   6.333   6.031  12.714
    8        0.350   6.332   6.031  12.714
    9        0.350   6.333   6.031  12.714
   10        0.768   0.714   8.049   9.530
   11        0.768   0.713   8.049   9.529
   12        0.768   0.713   8.049   9.529
--------------------------------------------------
tot          5.457  59.132  78.427 143.016



 magnetization (x)

# of ion       s       p       d       tot
------------------------------------------
    1       -0.002  -0.016   2.728   2.709
    2       -0.002  -0.016   2.729   2.710
    3       -0.002  -0.016   2.728   2.709
    4       -0.002  -0.017   2.727   2.708
    5       -0.002  -0.017   2.729   2.710
    6       -0.002  -0.017   2.729   2.710
    7       -0.002  -0.016   2.728   2.709
    8       -0.002  -0.016   2.729   2.710
    9       -0.002  -0.016   2.728   2.709
   10       -0.041  -0.100   0.449   0.308
   11       -0.041  -0.100   0.449   0.308
   12       -0.041  -0.100   0.449   0.308
--------------------------------------------------
tot         -0.145  -0.448  25.902  25.309
 

 total amount of memory used by VASP MPI-rank0   282731. kBytes
=======================================================================

   base      :      30000. kBytes
   nonl-proj :     102217. kBytes
   fftplans  :        888. kBytes
   grid      :       6813. kBytes
   one-center:        373. kBytes
   wavefun   :     142440. kBytes
 
  
  
 General timing and accounting informations for this job:
 ========================================================
  
                  Total CPU time used (sec):      255.782
                            User time (sec):      249.000
                          System time (sec):        6.782
                         Elapsed time (sec):      264.553
  
                   Maximum memory used (kb):     1226164.
                   Average memory used (kb):          N/A
  
                          Minor page faults:       183711
                          Major page faults:          140
                 Voluntary context switches:         9122
