       N       E                     dE             d eps       ncg     rms          rms(c)
DAV:   1     0.176092687835E+04    0.17609E+04   -0.84174E+04 43168   0.183E+03
DAV:   2     0.543044701102E+01   -0.17555E+04   -0.16658E+04 43040   0.484E+02
DAV:   3    -0.103459441667E+03   -0.10889E+03   -0.10758E+03 50656   0.129E+02
DAV:   4    -0.104974306220E+03   -0.15149E+01   -0.15146E+01 45952   0.153E+01
DAV:   5    -0.105001654416E+03   -0.27348E-01   -0.27348E-01 53024   0.200E+00    0.417E+01
DAV:   6    -0.107905007653E+03   -0.29034E+01   -0.13702E+02 51360   0.622E+01    0.570E+01
DAV:   7    -0.118334174998E+03   -0.10429E+02   -0.45992E+02 53440   0.644E+01    0.673E+01
DAV:   8    -0.994447680185E+02    0.18889E+02   -0.12175E+02 51808   0.472E+01    0.388E+01
DAV:   9    -0.103843619263E+03   -0.43989E+01   -0.21095E+02 50720   0.358E+01    0.474E+01
DAV:  10    -0.962719026077E+02    0.75717E+01   -0.93473E+01 51072   0.217E+01    0.319E+01
DAV:  11    -0.921466855907E+02    0.41252E+01   -0.30644E+01 52448   0.180E+01    0.126E+01
DAV:  12    -0.946503146109E+02   -0.25036E+01   -0.31477E+01 52800   0.146E+01    0.275E+01
DAV:  13    -0.923917810502E+02    0.22585E+01   -0.25647E+01 52416   0.128E+01    0.843E+00
DAV:  14    -0.925106283636E+02   -0.11885E+00   -0.24499E+00 51872   0.587E+00    0.884E+00
DAV:  15    -0.924865081194E+02    0.24120E-01   -0.12719E+00 51584   0.365E+00    0.732E+00
DAV:  16    -0.925306787617E+02   -0.44171E-01   -0.71732E-02 51296   0.104E+00    0.686E+00
DAV:  17    -0.927362198759E+02   -0.20554E+00   -0.56195E-01 53056   0.218E+00    0.637E+00
DAV:  18    -0.929867485334E+02   -0.25053E+00   -0.14010E+00 52384   0.370E+00    0.449E+00
DAV:  19    -0.930712244967E+02   -0.84476E-01   -0.10203E+00 52864   0.408E+00    0.235E+00
DAV:  20    -0.930720282610E+02   -0.80376E-03   -0.11181E-01 49600   0.131E+00    0.159E+00
DAV:  21    -0.930759626606E+02   -0.39344E-02   -0.37044E-02 52800   0.858E-01    0.103E+00
DAV:  22    -0.930792759870E+02   -0.33133E-02   -0.34853E-02 52736   0.773E-01    0.649E-01
DAV:  23    -0.930802551687E+02   -0.97918E-03   -0.54876E-03 51616   0.355E-01    0.398E-01
DAV:  24    -0.930806526784E+02   -0.39751E-03   -0.32485E-03 54816   0.264E-01    0.210E-01
DAV:  25    -0.930809785911E+02   -0.32591E-03   -0.11183E-03 52736   0.137E-01    0.168E-01
DAV:  26    -0.930810132602E+02   -0.34669E-04   -0.46305E-04 52512   0.140E-01    0.108E-01
DAV:  27    -0.930810298384E+02   -0.16578E-04   -0.50994E-04 54464   0.837E-02    0.574E-02
DAV:  28    -0.930810476262E+02   -0.17788E-04   -0.34974E-05 52416   0.284E-02    0.470E-02
DAV:  29    -0.930810660133E+02   -0.18387E-04   -0.37101E-05 52256   0.299E-02    0.273E-02
DAV:  30    -0.930810611364E+02    0.48769E-05   -0.13656E-05 50752   0.181E-02    0.127E-02
DAV:  31    -0.930810603477E+02    0.78871E-06   -0.29375E-06 36640   0.856E-03
   1 F= -.93081060E+02 E0= -.93081060E+02  d E =0.000000E+00  mag=     8.0238
