       N       E                     dE             d eps       ncg     rms          ort
DAV:   1     0.176300220051E+04    0.17630E+04   -0.91457E+04 10752   0.203E+03
DAV:   2     0.542536097873E+01   -0.17576E+04   -0.16680E+04 10752   0.484E+02
DAV:   3    -0.103379623943E+03   -0.10880E+03   -0.10750E+03 10752   0.129E+02
DAV:   4    -0.104890870750E+03   -0.15112E+01   -0.15110E+01 10752   0.153E+01
DAV:   5    -0.104918198558E+03   -0.27328E-01   -0.27327E-01 10752   0.200E+00
SDA:   6    -0.543669111550E+02    0.50551E+02   -0.27327E-01 10752   0.419E+03 0.000E+00
CGA:   7    -0.674099279895E+02   -0.13043E+02   -0.99690E+01 10752   0.171E+03 0.119E+03
CGA:   8    -0.837196104193E+02   -0.16310E+02   -0.15286E+02 10752   0.148E+03 0.106E+02
CGA:   9    -0.869247588690E+02   -0.32051E+01   -0.28575E+01 10752   0.359E+02 0.233E+02
CGA:  10    -0.885054693182E+02   -0.15807E+01   -0.17621E+01 10752   0.374E+02-0.336E+01
CGA:  11    -0.893245503229E+02   -0.81908E+00   -0.70495E+00 10752   0.190E+02 0.580E+01
CGA:  12    -0.900465959151E+02   -0.72205E+00   -0.63641E+00 10752   0.249E+02 0.290E+01
CGA:  13    -0.913824465577E+02   -0.13359E+01   -0.11320E+01 10752   0.242E+02 0.502E+01
CGA:  14    -0.918158987512E+02   -0.43345E+00   -0.30060E+00 10752   0.769E+01 0.130E+02
CGA:  15    -0.920106508478E+02   -0.19475E+00   -0.21490E+00 10752   0.346E+01-0.624E+00
CGA:  16    -0.922962356178E+02   -0.28558E+00   -0.28991E+00 10752   0.372E+01-0.154E-02
CGA:  17    -0.927498699070E+02   -0.45363E+00   -0.45463E+00 10752   0.162E+01 0.341E-01
CGA:  18    -0.928067268978E+02   -0.56857E-01   -0.57676E-01 10752   0.110E+01-0.165E-01
CGA:  19    -0.929622684687E+02   -0.15554E+00   -0.15505E+00 10752   0.874E+00 0.235E-01
CGA:  20    -0.930243580401E+02   -0.62090E-01   -0.61637E-01 10752   0.200E+00 0.382E-02
CGA:  21    -0.930301160671E+02   -0.57580E-02   -0.58550E-02 10752   0.749E-01-0.235E-02
CGA:  22    -0.930402799950E+02   -0.10164E-01   -0.10144E-01 10752   0.104E+00 0.996E-03
CGA:  23    -0.930479402764E+02   -0.76603E-02   -0.77280E-02 10752   0.136E+00 0.213E-04
CGA:  24    -0.930533831013E+02   -0.54428E-02   -0.55304E-02 10752   0.378E-01-0.127E-02
CGA:  25    -0.930608506151E+02   -0.74675E-02   -0.74549E-02 10752   0.737E-01 0.132E-03
CGA:  26    -0.930641112817E+02   -0.32607E-02   -0.33321E-02 10752   0.511E-01-0.120E-02
CGA:  27    -0.930682596343E+02   -0.41484E-02   -0.41562E-02 10752   0.333E-01-0.119E-03
CGA:  28    -0.930717019270E+02   -0.34423E-02   -0.34454E-02 10752   0.417E-01-0.179E-04
CGA:  29    -0.930729993780E+02   -0.12975E-02   -0.12930E-02 10752   0.655E-02-0.130E-03
CGA:  30    -0.930738016811E+02   -0.80230E-03   -0.80268E-03 10752   0.108E-01-0.332E-04
CGA:  31    -0.930744430652E+02   -0.64138E-03   -0.64067E-03 10752   0.113E-01-0.285E-04
CGA:  32    -0.930752585225E+02   -0.81546E-03   -0.81499E-03 10752   0.196E-02-0.171E-04
CGA:  33    -0.930754170750E+02   -0.15855E-03   -0.15870E-03 10752   0.350E-02 0.519E-05
CGA:  34    -0.930756394660E+02   -0.22239E-03   -0.22260E-03 10752   0.248E-02 0.862E-05
CGA:  35    -0.930758652768E+02   -0.22581E-03   -0.22598E-03 10752   0.147E-02 0.764E-05
CGA:  36    -0.930759219693E+02   -0.56693E-04   -0.56322E-04 10752   0.890E-03-0.506E-05
CGA:  37    -0.930760715343E+02   -0.14956E-03   -0.15274E-03 10752   0.835E-03-0.457E-04
CGA:  38    -0.930761167989E+02   -0.45265E-04   -0.44300E-04 10752   0.658E-03-0.134E-04
CGA:  39    -0.930761477746E+02   -0.30976E-04   -0.30251E-04 10752   0.290E-03-0.759E-05
CGA:  40    -0.930761853494E+02   -0.37575E-04   -0.37932E-04 10752   0.432E-03-0.945E-05
CGA:  41    -0.930761991195E+02   -0.13770E-04   -0.13574E-04 10752   0.107E-03-0.964E-07
CGA:  42    -0.930762127082E+02   -0.13589E-04   -0.13437E-04 10752   0.842E-04 0.591E-05
CGA:  43    -0.930762205765E+02   -0.78683E-05   -0.79220E-05 10752   0.766E-04 0.692E-05
CGA:  44    -0.930762234235E+02   -0.28470E-05   -0.30547E-05 10752   0.306E-04 0.399E-05
SDA:  45    -0.930762284806E+02   -0.50571E-05   -0.46476E-05 10752   0.360E-04 0.873E-05
CGA:  46    -0.930762294193E+02   -0.93872E-06   -0.95097E-06 10752   0.127E-04 0.748E-06
CGA:  47    -0.930762307529E+02   -0.13337E-05   -0.13224E-05 10752   0.129E-04 0.177E-05
CGA:  48    -0.930762327662E+02   -0.20133E-05   -0.19060E-05 10752   0.128E-04 0.335E-05
CGA:  49    -0.930762334178E+02   -0.65158E-06   -0.71047E-06 10752   0.107E-04 0.155E-05
CGA:  50    -0.930762345637E+02   -0.11459E-05   -0.11405E-05 10752   0.608E-05 0.309E-05
CGA:  51    -0.930762349883E+02   -0.42460E-06   -0.45686E-06 10752   0.698E-05 0.126E-05
   1 F= -.93076235E+02 E0= -.93080267E+02  d E =-.930762E+02  mag=     8.0130
       N       E                     dE             d eps       ncg     rms          ort
SDA:   1    -0.930683683972E+02    0.78662E-02    0.00000E+00 10752   0.228E-01 0.000E+00
CGA:   2    -0.930709932153E+02   -0.26248E-02   -0.26247E-02 10752   0.494E-01 0.237E-06
CGA:   3    -0.930735019377E+02   -0.25087E-02   -0.25085E-02 10752   0.243E-01 0.361E-05
CGA:   4    -0.930751829928E+02   -0.16811E-02   -0.16813E-02 10752   0.524E-02 0.109E-05
CGA:   5    -0.930759710311E+02   -0.78804E-03   -0.78772E-03 10752   0.484E-02 0.472E-05
CGA:   6    -0.930761737785E+02   -0.20275E-03   -0.20277E-03 10752   0.302E-02 0.175E-05
CGA:   7    -0.930763007216E+02   -0.12694E-03   -0.12696E-03 10752   0.502E-03 0.602E-06
CGA:   8    -0.930764254216E+02   -0.12470E-03   -0.12463E-03 10752   0.353E-03 0.428E-06
CGA:   9    -0.930764412123E+02   -0.15791E-04   -0.15812E-04 10752   0.239E-03 0.451E-06
CGA:  10    -0.930764562118E+02   -0.14999E-04   -0.15001E-04 10752   0.158E-03 0.631E-07
CGA:  11    -0.930764746245E+02   -0.18413E-04   -0.18403E-04 10752   0.390E-04 0.369E-06
CGA:  12    -0.930764791097E+02   -0.44852E-05   -0.44901E-05 10752   0.925E-04-0.190E-06
CGA:  13    -0.930764824237E+02   -0.33140E-05   -0.33086E-05 10752   0.132E-04-0.112E-06
CGA:  14    -0.930764836647E+02   -0.12410E-05   -0.12408E-05 10752   0.794E-05-0.820E-07
CGA:  15    -0.930764842979E+02   -0.63317E-06   -0.63375E-06 10752   0.140E-04-0.129E-06
   2 F= -.93076484E+02 E0= -.93080517E+02  d E =-.249310E-03  mag=     8.0095
       N       E                     dE             d eps       ncg     rms          ort
SDA:   1    -0.930673664441E+02    0.91172E-02    0.00000E+00 10752   0.254E-01 0.000E+00
CGA:   2    -0.930713212690E+02   -0.39548E-02   -0.39555E-02 10752   0.352E-01-0.105E-04
CGA:   3    -0.930735586291E+02   -0.22374E-02   -0.22376E-02 10752   0.359E-01 0.258E-05
CGA:   4    -0.930751755291E+02   -0.16169E-02   -0.16176E-02 10752   0.576E-02-0.974E-05
CGA:   5    -0.930759129400E+02   -0.73741E-03   -0.73722E-03 10752   0.894E-02 0.429E-05
CGA:   6    -0.930762157518E+02   -0.30281E-03   -0.30283E-03 10752   0.292E-02 0.420E-05
CGA:   7    -0.930763794716E+02   -0.16372E-03   -0.16372E-03 10752   0.551E-03-0.749E-07
CGA:   8    -0.930765239077E+02   -0.14444E-03   -0.14458E-03 10752   0.277E-03-0.805E-06
CGA:   9    -0.930765402993E+02   -0.16392E-04   -0.16393E-04 10752   0.291E-03 0.874E-07
CGA:  10    -0.930765577842E+02   -0.17485E-04   -0.17516E-04 10752   0.189E-03 0.950E-06
CGA:  11    -0.930765745277E+02   -0.16744E-04   -0.16746E-04 10752   0.547E-04 0.683E-06
CGA:  12    -0.930765781699E+02   -0.36422E-05   -0.36406E-05 10752   0.906E-04-0.787E-07
CGA:  13    -0.930765832749E+02   -0.51050E-05   -0.50960E-05 10752   0.195E-04-0.256E-06
CGA:  14    -0.930765850321E+02   -0.17572E-05   -0.17589E-05 10752   0.701E-05-0.216E-06
CGA:  15    -0.930765862113E+02   -0.11792E-05   -0.11941E-05 10752   0.155E-04-0.168E-06
CGA:  16    -0.930765866726E+02   -0.46125E-06   -0.45285E-06 10752   0.158E-05-0.118E-06
   3 F= -.93076587E+02 E0= -.93080614E+02  d E =-.351684E-03  mag=     8.0112
       N       E                     dE             d eps       ncg     rms          ort
SDA:   1    -0.930738849737E+02    0.27012E-02    0.00000E+00 10752   0.162E-01 0.000E+00
CGA:   2    -0.930743835426E+02   -0.49857E-03   -0.49900E-03 10752   0.904E-02-0.145E-04
CGA:   3    -0.930755666628E+02   -0.11831E-02   -0.11832E-02 10752   0.890E-02-0.929E-06
CGA:   4    -0.930761069251E+02   -0.54026E-03   -0.54023E-03 10752   0.440E-02 0.720E-06
CGA:   5    -0.930762587753E+02   -0.15185E-03   -0.15181E-03 10752   0.152E-02-0.547E-08
CGA:   6    -0.930765264750E+02   -0.26770E-03   -0.26745E-03 10752   0.354E-03 0.281E-05
CGA:   7    -0.930765452473E+02   -0.18772E-04   -0.18763E-04 10752   0.387E-03-0.291E-06
CGA:   8    -0.930765676451E+02   -0.22398E-04   -0.22386E-04 10752   0.215E-03-0.435E-06
CGA:   9    -0.930765906566E+02   -0.23011E-04   -0.23016E-04 10752   0.122E-03-0.297E-06
CGA:  10    -0.930765942426E+02   -0.35860E-05   -0.35752E-05 10752   0.334E-04-0.194E-06
CGA:  11    -0.930765995004E+02   -0.52578E-05   -0.52480E-05 10752   0.382E-04 0.142E-06
CGA:  12    -0.930766026093E+02   -0.31089E-05   -0.31087E-05 10752   0.129E-04 0.183E-06
CGA:  13    -0.930766030607E+02   -0.45135E-06   -0.45555E-06 10752   0.805E-05 0.934E-07
   4 F= -.93076603E+02 E0= -.93080626E+02  d E =-.163881E-04  mag=     8.0159
       N       E                     dE             d eps       ncg     rms          ort
SDA:   1    -0.930523623714E+02    0.24240E-01    0.00000E+00 10752   0.138E+00 0.000E+00
CGA:   2    -0.930565290402E+02   -0.41667E-02   -0.41665E-02 10752   0.795E-01-0.101E-04
CGA:   3    -0.930688336653E+02   -0.12305E-01   -0.12306E-01 10752   0.553E-01-0.137E-04
CGA:   4    -0.930727614428E+02   -0.39278E-02   -0.39279E-02 10752   0.168E-01 0.764E-06
CGA:   5    -0.930739638554E+02   -0.12024E-02   -0.12024E-02 10752   0.285E-01 0.246E-05
CGA:   6    -0.930757305664E+02   -0.17667E-02   -0.17672E-02 10752   0.323E-02 0.809E-05
CGA:   7    -0.930759166572E+02   -0.18609E-03   -0.18606E-03 10752   0.368E-02-0.156E-05
CGA:   8    -0.930761142429E+02   -0.19759E-03   -0.19753E-03 10752   0.203E-02-0.199E-05
CGA:   9    -0.930763420874E+02   -0.22784E-03   -0.22794E-03 10752   0.408E-03-0.320E-05
CGA:  10    -0.930763772401E+02   -0.35153E-04   -0.35153E-04 10752   0.572E-03 0.418E-06
CGA:  11    -0.930764071213E+02   -0.29881E-04   -0.29892E-04 10752   0.427E-03 0.354E-06
CGA:  12    -0.930764378706E+02   -0.30749E-04   -0.30763E-04 10752   0.110E-03 0.125E-05
CGA:  13    -0.930764427212E+02   -0.48506E-05   -0.48661E-05 10752   0.109E-03 0.465E-06
CGA:  14    -0.930764534828E+02   -0.10762E-04   -0.10745E-04 10752   0.161E-04 0.826E-06
CGA:  15    -0.930764561883E+02   -0.27055E-05   -0.27349E-05 10752   0.333E-04-0.348E-06
CGA:  16    -0.930764574101E+02   -0.12219E-05   -0.12084E-05 10752   0.129E-04-0.280E-06
CGA:  17    -0.930764580945E+02   -0.68442E-06   -0.68084E-06 10752   0.329E-05-0.678E-07
   5 F= -.93076458E+02 E0= -.93080476E+02  d E =0.128578E-03  mag=     8.0312
       N       E                     dE             d eps       ncg     rms          ort
SDA:   1    -0.930650420535E+02    0.11415E-01    0.00000E+00 10752   0.518E-01 0.000E+00
CGA:   2    -0.930671617848E+02   -0.21197E-02   -0.21184E-02 10752   0.452E-01 0.164E-04
CGA:   3    -0.930730972217E+02   -0.59354E-02   -0.59357E-02 10752   0.246E-01-0.580E-05
CGA:   4    -0.930746834650E+02   -0.15862E-02   -0.15863E-02 10752   0.143E-01-0.165E-05
CGA:   5    -0.930752175437E+02   -0.53408E-03   -0.53414E-03 10752   0.863E-02-0.359E-05
CGA:   6    -0.930761875314E+02   -0.96999E-03   -0.97011E-03 10752   0.255E-02-0.420E-05
CGA:   7    -0.930763626551E+02   -0.17512E-03   -0.17514E-03 10752   0.124E-02 0.103E-05
CGA:   8    -0.930764170104E+02   -0.54355E-04   -0.54361E-04 10752   0.103E-02 0.143E-07
CGA:   9    -0.930765498324E+02   -0.13282E-03   -0.13271E-03 10752   0.308E-03 0.220E-05
CGA:  10    -0.930765595901E+02   -0.97576E-05   -0.97673E-05 10752   0.173E-03 0.244E-06
CGA:  11    -0.930765880247E+02   -0.28435E-04   -0.28462E-04 10752   0.123E-03-0.306E-06
CGA:  12    -0.930765966129E+02   -0.85882E-05   -0.85875E-05 10752   0.511E-04-0.750E-07
CGA:  13    -0.930765989787E+02   -0.23658E-05   -0.23599E-05 10752   0.489E-04-0.138E-06
CGA:  14    -0.930766031051E+02   -0.41264E-05   -0.41267E-05 10752   0.140E-04-0.679E-07
CGA:  15    -0.930766038506E+02   -0.74557E-06   -0.74897E-06 10752   0.138E-04 0.112E-06
   6 F= -.93076604E+02 E0= -.93080631E+02  d E =-.171781E-04  mag=     8.0233
       N       E                     dE             d eps       ncg     rms          ort
SDA:   1    -0.930759419189E+02    0.66119E-03    0.00000E+00 10752   0.841E-02 0.000E+00
CGA:   2    -0.930761567595E+02   -0.21484E-03   -0.21479E-03 10752   0.225E-02-0.243E-06
CGA:   3    -0.930763123528E+02   -0.15559E-03   -0.15559E-03 10752   0.131E-02-0.932E-06
CGA:   4    -0.930764754236E+02   -0.16307E-03   -0.16311E-03 10752   0.202E-02-0.807E-06
CGA:   5    -0.930765419330E+02   -0.66509E-04   -0.66448E-04 10752   0.354E-03-0.177E-05
CGA:   6    -0.930765729338E+02   -0.31001E-04   -0.31012E-04 10752   0.194E-03-0.865E-06
CGA:   7    -0.930765998233E+02   -0.26890E-04   -0.26928E-04 10752   0.406E-04-0.578E-06
CGA:   8    -0.930766017023E+02   -0.18790E-05   -0.18888E-05 10752   0.496E-04 0.270E-06
CGA:   9    -0.930766070517E+02   -0.53493E-05   -0.53248E-05 10752   0.127E-04 0.858E-06
CGA:  10    -0.930766077549E+02   -0.70319E-06   -0.70275E-06 10752   0.154E-04-0.620E-07
CGA:  11    -0.930766089388E+02   -0.11840E-05   -0.11851E-05 10752   0.700E-05-0.115E-06
CGA:  12    -0.930766095064E+02   -0.56753E-06   -0.57032E-06 10752   0.210E-05-0.184E-06
   7 F= -.93076610E+02 E0= -.93080636E+02  d E =-.228338E-04  mag=     8.0204
       N       E                     dE             d eps       ncg     rms          ort
SDA:   1    -0.930762912843E+02    0.31765E-03    0.00000E+00 10752   0.136E-01 0.000E+00
CGA:   2    -0.930765423176E+02   -0.25103E-03   -0.25110E-03 10752   0.223E-03-0.364E-05
CGA:   3    -0.930765709706E+02   -0.28653E-04   -0.28641E-04 10752   0.202E-03 0.246E-06
CGA:   4    -0.930765980007E+02   -0.27030E-04   -0.27021E-04 10752   0.523E-04 0.206E-06
CGA:   5    -0.930766024377E+02   -0.44370E-05   -0.44368E-05 10752   0.577E-04-0.108E-06
CGA:   6    -0.930766050036E+02   -0.25659E-05   -0.25648E-05 10752   0.416E-04-0.543E-07
CGA:   7    -0.930766077581E+02   -0.27544E-05   -0.27537E-05 10752   0.476E-05-0.880E-07
CGA:   8    -0.930766082510E+02   -0.49296E-06   -0.49611E-06 10752   0.129E-04-0.772E-07
   8 F= -.93076608E+02 E0= -.93080634E+02  d E =-.215785E-04  mag=     8.0192
