 vasp.6.4.3 19Mar24 (build Mar 26 2024 14:05:37) complex                        
  
 executed on             LinuxIFC date 2024.12.17  00:43:10
 running  128 mpi-ranks, on    1 nodes
 distrk:  each k-point on   32 cores,    4 groups
 distr:  one band on NCORE=   1 cores,   32 groups


--------------------------------------------------------------------------------------------------------


 INCAR:
   ALGO = Normal
   EDIFF = 1e-06
   EDIFFG = -0.01
   ENCUT = 520
   GGA = Pe
   IBRION = -1
   ISIF = 4
   ISMEAR = -5
   ISPIN = 2
   KPAR = 4
   LCHARG = True
   LORBIT = 11
   LREAL = False
   LWAVE = False
   MAGMOM = 1*-2.233 1*2.45 1*2.366 1*-2.286 1*2.349 1*2.535 1*-2.233 1*2.45 1*2.366 1*-0.041 1*0.067 1*0.245
   NELM = 200
   NSW = 0
   PREC = Accurate
   SIGMA = 0.2

 POTCAR:    PAW_PBE Fe_pv 02Aug2007               
 POTCAR:    PAW_PBE Pt 04Feb2005                  
 -----------------------------------------------------------------------------
|                                                                             |
|           W    W    AA    RRRRR   N    N  II  N    N   GGGG   !!!           |
|           W    W   A  A   R    R  NN   N  II  NN   N  G    G  !!!           |
|           W    W  A    A  R    R  N N  N  II  N N  N  G       !!!           |
|           W WW W  AAAAAA  RRRRR   N  N N  II  N  N N  G  GGG   !            |
|           WW  WW  A    A  R   R   N   NN  II  N   NN  G    G                |
|           W    W  A    A  R    R  N    N  II  N    N   GGGG   !!!           |
|                                                                             |
|     For optimal performance we recommend to set                             |
|       NCORE = 2 up to number-of-cores-per-socket                            |
|     NCORE specifies how many cores store one orbital (NPAR=cpu/NCORE).      |
|     This setting can greatly improve the performance of VASP for DFT.       |
|     The default, NCORE=1 might be grossly inefficient on modern             |
|     multi-core architectures or massively parallel machines. Do your        |
|     own testing! More info at https://www.vasp.at/wiki/index.php/NCORE      |
|     Unfortunately you need to use the default for GW and RPA                |
|     calculations (for HF NCORE is supported but not extensively tested      |
|     yet).                                                                   |
|                                                                             |
 -----------------------------------------------------------------------------

 POTCAR:    PAW_PBE Fe_pv 02Aug2007               
   SHA256 =  5d22e414b1f82158bf2c7ecb8b97b28fd0923e48cadc1c3bf74d524558f5dd32 Fe_pv/POTCAR          
   COPYR  = (c) Copyright 02Aug2007 Georg Kresse                                                    
   COPYR  = This file is part of the software VASP. Any use, copying, and all other rights are regul
   COPYR  = If you do not have a valid VASP license, you may not use, copy or distribute this file. 
   VRHFIN =Fe:  3pd7s1                                                                              
   LEXCH  = PE                                                                                      
   EATOM  =  2457.4239 eV,  180.6156 Ry                                                             
                                                                                                    
   TITEL  = PAW_PBE Fe_pv 02Aug2007                                                                 
   LULTRA =        F    use ultrasoft PP ?                                                          
   IUNSCR =        1    unscreen: 0-lin 1-nonlin 2-no                                               
   RPACOR =    1.750    partial core radius                                                         
   POMASS =   55.847; ZVAL   =   14.000    mass and valenz                                          
   RCORE  =    2.200    outmost cutoff radius                                                       
   RWIGS  =    2.200; RWIGS  =    1.164    wigner-seitz radius (au A)                               
   ENMAX  =  293.238; ENMIN  =  219.928 eV                                                          
   ICORE  =        3    local potential                                                             
   LCOR   =        T    correct aug charges                                                         
   LPAW   =        T    paw PP                                                                      
   EAUG   =  578.342                                                                                
   DEXC   =    0.000                                                                                
   RMAX   =    2.249    core radius for proj-oper                                                   
   RAUG   =    1.300    factor for augmentation sphere                                              
   RDEP   =    2.296    radius for radial grids                                                     
   RDEPT  =    1.766    core radius for aug-charge                                                  
                                                                                                    
   Atomic configuration                                                                             
    8 entries                                                                                       
     n  l   j            E        occ.                                                              
     1  0  0.50     -6993.8440   2.0000                                                             
     2  0  0.50      -814.6047   2.0000                                                             
     2  1  1.50      -693.3689   6.0000                                                             
     3  0  0.50       -89.4732   2.0000                                                             
     3  1  1.50       -55.6373   6.0000                                                             
     3  2  2.50        -3.8151   7.0000                                                             
     4  0  0.50        -4.2551   1.0000                                                             
     4  3  2.50        -1.3606   0.0000                                                             
   Description                                                                                      
     l       E           TYP  RCUT    TYP  RCUT                                                     
     1    -55.6372668     23  2.000                                                                 
     1     -5.4423304     23  2.000                                                                 
     2     -3.8151096     23  2.200                                                                 
     2     -5.1756922     23  2.200                                                                 
     0     -4.2550951     23  2.200                                                                 
     0     27.2116520     23  2.200                                                                 
     3     -1.3605826     23  2.200                                                                 
  local pseudopotential read in
  partial core-charges read in
  partial kinetic energy density read in
  atomic valenz-charges read in
  non local Contribution for L=           1  read in
    real space projection operators read in
  non local Contribution for L=           1  read in
    real space projection operators read in
  non local Contribution for L=           2  read in
    real space projection operators read in
  non local Contribution for L=           2  read in
    real space projection operators read in
  non local Contribution for L=           0  read in
    real space projection operators read in
  non local Contribution for L=           0  read in
    real space projection operators read in
    PAW grid and wavefunctions read in
 
   number of l-projection  operators is LMAX  =           6
   number of lm-projection operators is LMMAX =          18
 
 POTCAR:    PAW_PBE Pt 04Feb2005                  
   SHA256 =  3ed90460adef76debcff1cfb73ee1349b515b1a3db03439735b44de3a8db7dc8 Pt/POTCAR             
   COPYR  = (c) Copyright 04Feb2005 Georg Kresse                                                    
   COPYR  = This file is part of the software VASP. Any use, copying, and all other rights are regul
   COPYR  = If you do not have a valid VASP license, you may not use, copy or distribute this file. 
   VRHFIN =Pt: s1d9                                                                                 
   LEXCH  = PE                                                                                      
   EATOM  =   729.1176 eV,   53.5886 Ry                                                             
                                                                                                    
   TITEL  = PAW_PBE Pt 04Feb2005                                                                    
   LULTRA =        F    use ultrasoft PP ?                                                          
   IUNSCR =        1    unscreen: 0-lin 1-nonlin 2-no                                               
   RPACOR =    2.330    partial core radius                                                         
   POMASS =  195.080; ZVAL   =   10.000    mass and valenz                                          
   RCORE  =    2.600    outmost cutoff radius                                                       
   RWIGS  =    2.750; RWIGS  =    1.455    wigner-seitz radius (au A)                               
   ENMAX  =  230.283; ENMIN  =  172.712 eV                                                          
   ICORE  =        3    local potential                                                             
   LCOR   =        T    correct aug charges                                                         
   LPAW   =        T    paw PP                                                                      
   EAUG   =  358.966                                                                                
   DEXC   =    0.000                                                                                
   RMAX   =    2.658    core radius for proj-oper                                                   
   RAUG   =    1.300    factor for augmentation sphere                                              
   RDEP   =    2.761    radius for radial grids                                                     
   RDEPT  =    2.203    core radius for aug-charge                                                  
                                                                                                    
   Atomic configuration                                                                             
   16 entries                                                                                       
     n  l   j            E        occ.                                                              
     1  0  0.50    -78401.1885   2.0000                                                             
     2  0  0.50    -13770.7750   2.0000                                                             
     2  1  1.50    -11931.0468   6.0000                                                             
     3  0  0.50     -3234.7234   2.0000                                                             
     3  1  1.50     -2699.2216   6.0000                                                             
     3  2  2.50     -2119.5714  10.0000                                                             
     4  0  0.50      -695.1528   2.0000                                                             
     4  1  1.50      -519.6034   6.0000                                                             
     4  2  2.50      -306.6786  10.0000                                                             
     4  3  3.50       -70.1041  14.0000                                                             
     5  0  0.50      -101.7747   2.0000                                                             
     5  1  1.50       -55.9873   6.0000                                                             
     5  2  2.50        -6.1423   9.0000                                                             
     6  0  0.50        -5.6573   1.0000                                                             
     6  1  1.50        -6.8029   0.0000                                                             
     5  3  2.50        -1.3606   0.0000                                                             
   Description                                                                                      
     l       E           TYP  RCUT    TYP  RCUT                                                     
     2     -6.1423404     23  2.500                                                                 
     2     -7.5029230     23  2.500                                                                 
     0     -5.6573207     23  2.500                                                                 
     0      0.7416693     23  2.500                                                                 
     1     -2.7211652     23  2.600                                                                 
     1     20.4087390     23  2.600                                                                 
     3     -1.3605826     23  2.500                                                                 
  local pseudopotential read in
  partial core-charges read in
  partial kinetic energy density read in
  atomic valenz-charges read in
  non local Contribution for L=           2  read in
    real space projection operators read in
  non local Contribution for L=           2  read in
    real space projection operators read in
  non local Contribution for L=           0  read in
    real space projection operators read in
  non local Contribution for L=           0  read in
    real space projection operators read in
  non local Contribution for L=           1  read in
    real space projection operators read in
  non local Contribution for L=           1  read in
    real space projection operators read in
    PAW grid and wavefunctions read in
 
   number of l-projection  operators is LMAX  =           6
   number of lm-projection operators is LMMAX =          18
 
  PAW_PBE Fe_pv 02Aug2007               :
 energy of atom  1       EATOM=-2457.4239
 kinetic energy error for atom=    0.0062 (will be added to EATOM!!)
  PAW_PBE Pt 04Feb2005                  :
 energy of atom  2       EATOM= -729.1176
 kinetic energy error for atom=    0.0032 (will be added to EATOM!!)
 
 
 POSCAR: Fe9 Pt3
  positions in direct lattice
  velocities in cartesian coordinates


 exchange-correlation table for PE
   RHO(1)=    0.500       N(1)  =     2000
   RHO(2)=  100.500       N(2)  =     4000
 


--------------------------------------------------------------------------------------------------------


 ion  position               nearest neighbor table
   1  0.000  0.500  0.167-   4 2.55   4 2.55  11 2.56  11 2.56   7 2.57   7 2.57   7 2.57   7 2.57
                            10 2.59  10 2.59   5 2.59   5 2.59
   2  0.000  0.500  0.499-   5 2.56   5 2.56   8 2.57   8 2.57   8 2.57   8 2.57   6 2.57   6 2.57
                            12 2.59  12 2.59  11 2.60  11 2.60
   3  0.000  0.500  0.834-  10 2.56  10 2.56   9 2.57   9 2.57   9 2.57   9 2.57  12 2.59  12 2.59
                             4 2.60   4 2.60   6 2.60   6 2.60
   4  0.500  0.500  0.004-   1 2.55   7 2.55   7 2.55   1 2.55  10 2.57  10 2.57  10 2.57  10 2.57
                             9 2.60   3 2.60   9 2.60   3 2.60
   5  0.500  0.500  0.335-   2 2.56   8 2.56   8 2.56   2 2.56  11 2.57  11 2.57  11 2.57  11 2.57
                             1 2.59   7 2.59   1 2.59   7 2.59
   6  0.500  0.500  0.665-  12 2.57  12 2.57  12 2.57  12 2.57   8 2.57   2 2.57   2 2.57   8 2.57
                             9 2.60   3 2.60   9 2.60   3 2.60
   7  0.500  0.000  0.167-   4 2.55   4 2.55  11 2.56  11 2.56   1 2.57   1 2.57   1 2.57   1 2.57
                            10 2.59  10 2.59   5 2.59   5 2.59
   8  0.500  0.000  0.499-   5 2.56   5 2.56   2 2.57   2 2.57   2 2.57   2 2.57   6 2.57   6 2.57
                            12 2.59  12 2.59  11 2.60  11 2.60
   9  0.500  0.000  0.834-  10 2.56  10 2.56   3 2.57   3 2.57   3 2.57   3 2.57  12 2.59  12 2.59
                             4 2.60   4 2.60   6 2.60   6 2.60
  10  0.000  0.000  0.999-   3 2.56   9 2.56   3 2.56   9 2.56   4 2.57   4 2.57   4 2.57   4 2.57
                             1 2.59   7 2.59   7 2.59   1 2.59
  11  0.000  0.000  0.330-   1 2.56   7 2.56   1 2.56   7 2.56   5 2.57   5 2.57   5 2.57   5 2.57
                             2 2.60   2 2.60   8 2.60   8 2.60
  12  0.000  0.000  0.667-   6 2.57   6 2.57   6 2.57   6 2.57   3 2.59   9 2.59   9 2.59   3 2.59
                             2 2.59   8 2.59   8 2.59   2 2.59
 
  LATTYP: Found a simple tetragonal cell.
 ALAT       =     3.6308983862
 C/A-ratio  =     3.0291844399
  
  Lattice vectors:
  
 A1 = (   3.6308983862,   0.0000000000,   0.0000000000)
 A2 = (   0.0000000000,   3.6308983862,   0.0000000000)
 A3 = (   0.0000000000,   0.0000000000,  10.9986608941)


Analysis of symmetry for initial positions (statically):
=====================================================================
 Subroutine PRICEL returns:
 Original cell was already a primitive cell.
 

 Routine SETGRP: Setting up the symmetry group for a 
 simple tetragonal supercell.


 Subroutine GETGRP returns: Found  8 space group operations
 (whereof  8 operations were pure point group operations)
 out of a pool of 16 trial point group operations.


The static configuration has the point symmetry C_4v.


Analysis of symmetry for dynamics (positions and initial velocities):
=====================================================================
 Subroutine PRICEL returns:
 Original cell was already a primitive cell.
 

 Routine SETGRP: Setting up the symmetry group for a 
 simple tetragonal supercell.


 Subroutine GETGRP returns: Found  8 space group operations
 (whereof  8 operations were pure point group operations)
 out of a pool of 16 trial point group operations.


The dynamic configuration has the point symmetry C_4v.


Analysis of structural, dynamic, and magnetic symmetry:
=====================================================================
 Subroutine PRICEL returns:
 Original cell was already a primitive cell.
 

 Routine SETGRP: Setting up the symmetry group for a 
 simple tetragonal supercell.


 Subroutine GETGRP returns: Found  8 space group operations
 (whereof  8 operations were pure point group operations)
 out of a pool of 16 trial point group operations.


The overall configuration has the point symmetry C_4v.


 Subroutine INISYM returns: Found  8 space group operations
 (whereof  8 operations are pure point group operations),
 and found     1 'primitive' translations


----------------------------------------------------------------------------------------

                                     Primitive cell                                     

  volume of cell :     145.0000

  direct lattice vectors                    reciprocal lattice vectors
     3.630898386  0.000000000  0.000000000     0.275413932  0.000000000  0.000000000
     0.000000000  3.630898386  0.000000000     0.000000000  0.275413932  0.000000000
     0.000000000  0.000000000 10.998660894     0.000000000  0.000000000  0.090920159

  length of vectors
     3.630898386  3.630898386 10.998660894     0.275413932  0.275413932  0.090920159

  position of ions in fractional coordinates (direct lattice)
     0.000000000  0.500000000  0.166515639
     0.000000000  0.500000000  0.499181455
     0.000000000  0.500000000  0.834435829
     0.500000000  0.500000000  0.003858390
     0.500000000  0.500000000  0.335077220
     0.500000000  0.500000000  0.664840480
     0.500000000  0.000000000  0.166515639
     0.500000000  0.000000000  0.499181455
     0.500000000  0.000000000  0.834435829
     0.000000000  0.000000000  0.998900809
     0.000000000  0.000000000  0.330159192
     0.000000000  0.000000000  0.666898063

  ion indices of the primitive-cell ions
   primitive index   ion index
                 1           1
                 2           2
                 3           3
                 4           4
                 5           5
                 6           6
                 7           7
                 8           8
                 9           9
                10          10
                11          11
                12          12

----------------------------------------------------------------------------------------

 
 
 KPOINTS: pymatgen with grid density = 8800 / numb

Automatic generation of k-mesh.
 Grid dimensions read from file:
 generate k-points for:   13   13    4

 Generating k-lattice:

  Cartesian coordinates                     Fractional coordinates (reciprocal lattice)
     0.021185687  0.000000000  0.000000000     0.076923077  0.000000000  0.000000000
     0.000000000  0.021185687  0.000000000     0.000000000  0.076923077  0.000000000
     0.000000000  0.000000000  0.022730040     0.000000000  0.000000000  0.250000000

  Length of vectors
     0.021185687  0.021185687  0.022730040

  Shift w.r.t. Gamma in fractional coordinates (k-lattice)
     0.000000000  0.000000000  0.000000000

 TETIRR: Found   1010 inequivalent tetrahedra from     4056
 
 Subroutine IBZKPT returns following result:
 ===========================================
 
 Found     84 irreducible k-points:
 
 Following reciprocal coordinates:
            Coordinates               Weight
  0.000000  0.000000  0.000000      1.000000
  0.076923  0.000000  0.000000      4.000000
  0.153846  0.000000  0.000000      4.000000
  0.230769  0.000000  0.000000      4.000000
  0.307692  0.000000  0.000000      4.000000
  0.384615  0.000000  0.000000      4.000000
  0.461538  0.000000  0.000000      4.000000
  0.076923  0.076923  0.000000      4.000000
  0.153846  0.076923  0.000000      8.000000
  0.230769  0.076923  0.000000      8.000000
  0.307692  0.076923  0.000000      8.000000
  0.384615  0.076923  0.000000      8.000000
  0.461538  0.076923  0.000000      8.000000
  0.153846  0.153846  0.000000      4.000000
  0.230769  0.153846  0.000000      8.000000
  0.307692  0.153846  0.000000      8.000000
  0.384615  0.153846  0.000000      8.000000
  0.461538  0.153846  0.000000      8.000000
  0.230769  0.230769  0.000000      4.000000
  0.307692  0.230769  0.000000      8.000000
  0.384615  0.230769  0.000000      8.000000
  0.461538  0.230769  0.000000      8.000000
  0.307692  0.307692  0.000000      4.000000
  0.384615  0.307692  0.000000      8.000000
  0.461538  0.307692  0.000000      8.000000
  0.384615  0.384615  0.000000      4.000000
  0.461538  0.384615  0.000000      8.000000
  0.461538  0.461538  0.000000      4.000000
  0.000000  0.000000  0.250000      2.000000
  0.076923  0.000000  0.250000      8.000000
  0.153846  0.000000  0.250000      8.000000
  0.230769  0.000000  0.250000      8.000000
  0.307692  0.000000  0.250000      8.000000
  0.384615  0.000000  0.250000      8.000000
  0.461538  0.000000  0.250000      8.000000
  0.076923  0.076923  0.250000      8.000000
  0.153846  0.076923  0.250000     16.000000
  0.230769  0.076923  0.250000     16.000000
  0.307692  0.076923  0.250000     16.000000
  0.384615  0.076923  0.250000     16.000000
  0.461538  0.076923  0.250000     16.000000
  0.153846  0.153846  0.250000      8.000000
  0.230769  0.153846  0.250000     16.000000
  0.307692  0.153846  0.250000     16.000000
  0.384615  0.153846  0.250000     16.000000
  0.461538  0.153846  0.250000     16.000000
  0.230769  0.230769  0.250000      8.000000
  0.307692  0.230769  0.250000     16.000000
  0.384615  0.230769  0.250000     16.000000
  0.461538  0.230769  0.250000     16.000000
  0.307692  0.307692  0.250000      8.000000
  0.384615  0.307692  0.250000     16.000000
  0.461538  0.307692  0.250000     16.000000
  0.384615  0.384615  0.250000      8.000000
  0.461538  0.384615  0.250000     16.000000
  0.461538  0.461538  0.250000      8.000000
  0.000000  0.000000  0.500000      1.000000
  0.076923  0.000000  0.500000      4.000000
  0.153846  0.000000  0.500000      4.000000
  0.230769  0.000000  0.500000      4.000000
  0.307692  0.000000  0.500000      4.000000
  0.384615  0.000000  0.500000      4.000000
  0.461538  0.000000  0.500000      4.000000
  0.076923  0.076923  0.500000      4.000000
  0.153846  0.076923  0.500000      8.000000
  0.230769  0.076923  0.500000      8.000000
  0.307692  0.076923  0.500000      8.000000
  0.384615  0.076923  0.500000      8.000000
  0.461538  0.076923  0.500000      8.000000
  0.153846  0.153846  0.500000      4.000000
  0.230769  0.153846  0.500000      8.000000
  0.307692  0.153846  0.500000      8.000000
  0.384615  0.153846  0.500000      8.000000
  0.461538  0.153846  0.500000      8.000000
  0.230769  0.230769  0.500000      4.000000
  0.307692  0.230769  0.500000      8.000000
  0.384615  0.230769  0.500000      8.000000
  0.461538  0.230769  0.500000      8.000000
  0.307692  0.307692  0.500000      4.000000
  0.384615  0.307692  0.500000      8.000000
  0.461538  0.307692  0.500000      8.000000
  0.384615  0.384615  0.500000      4.000000
  0.461538  0.384615  0.500000      8.000000
  0.461538  0.461538  0.500000      4.000000
 
 Following cartesian coordinates:
            Coordinates               Weight
  0.000000  0.000000  0.000000      1.000000
  0.021186  0.000000  0.000000      4.000000
  0.042371  0.000000  0.000000      4.000000
  0.063557  0.000000  0.000000      4.000000
  0.084743  0.000000  0.000000      4.000000
  0.105928  0.000000  0.000000      4.000000
  0.127114  0.000000  0.000000      4.000000
  0.021186  0.021186  0.000000      4.000000
  0.042371  0.021186  0.000000      8.000000
  0.063557  0.021186  0.000000      8.000000
  0.084743  0.021186  0.000000      8.000000
  0.105928  0.021186  0.000000      8.000000
  0.127114  0.021186  0.000000      8.000000
  0.042371  0.042371  0.000000      4.000000
  0.063557  0.042371  0.000000      8.000000
  0.084743  0.042371  0.000000      8.000000
  0.105928  0.042371  0.000000      8.000000
  0.127114  0.042371  0.000000      8.000000
  0.063557  0.063557  0.000000      4.000000
  0.084743  0.063557  0.000000      8.000000
  0.105928  0.063557  0.000000      8.000000
  0.127114  0.063557  0.000000      8.000000
  0.084743  0.084743  0.000000      4.000000
  0.105928  0.084743  0.000000      8.000000
  0.127114  0.084743  0.000000      8.000000
  0.105928  0.105928  0.000000      4.000000
  0.127114  0.105928  0.000000      8.000000
  0.127114  0.127114  0.000000      4.000000
  0.000000  0.000000  0.022730      2.000000
  0.021186  0.000000  0.022730      8.000000
  0.042371  0.000000  0.022730      8.000000
  0.063557  0.000000  0.022730      8.000000
  0.084743  0.000000  0.022730      8.000000
  0.105928  0.000000  0.022730      8.000000
  0.127114  0.000000  0.022730      8.000000
  0.021186  0.021186  0.022730      8.000000
  0.042371  0.021186  0.022730     16.000000
  0.063557  0.021186  0.022730     16.000000
  0.084743  0.021186  0.022730     16.000000
  0.105928  0.021186  0.022730     16.000000
  0.127114  0.021186  0.022730     16.000000
  0.042371  0.042371  0.022730      8.000000
  0.063557  0.042371  0.022730     16.000000
  0.084743  0.042371  0.022730     16.000000
  0.105928  0.042371  0.022730     16.000000
  0.127114  0.042371  0.022730     16.000000
  0.063557  0.063557  0.022730      8.000000
  0.084743  0.063557  0.022730     16.000000
  0.105928  0.063557  0.022730     16.000000
  0.127114  0.063557  0.022730     16.000000
  0.084743  0.084743  0.022730      8.000000
  0.105928  0.084743  0.022730     16.000000
  0.127114  0.084743  0.022730     16.000000
  0.105928  0.105928  0.022730      8.000000
  0.127114  0.105928  0.022730     16.000000
  0.127114  0.127114  0.022730      8.000000
  0.000000  0.000000  0.045460      1.000000
  0.021186  0.000000  0.045460      4.000000
  0.042371  0.000000  0.045460      4.000000
  0.063557  0.000000  0.045460      4.000000
  0.084743  0.000000  0.045460      4.000000
  0.105928  0.000000  0.045460      4.000000
  0.127114  0.000000  0.045460      4.000000
  0.021186  0.021186  0.045460      4.000000
  0.042371  0.021186  0.045460      8.000000
  0.063557  0.021186  0.045460      8.000000
  0.084743  0.021186  0.045460      8.000000
  0.105928  0.021186  0.045460      8.000000
  0.127114  0.021186  0.045460      8.000000
  0.042371  0.042371  0.045460      4.000000
  0.063557  0.042371  0.045460      8.000000
  0.084743  0.042371  0.045460      8.000000
  0.105928  0.042371  0.045460      8.000000
  0.127114  0.042371  0.045460      8.000000
  0.063557  0.063557  0.045460      4.000000
  0.084743  0.063557  0.045460      8.000000
  0.105928  0.063557  0.045460      8.000000
  0.127114  0.063557  0.045460      8.000000
  0.084743  0.084743  0.045460      4.000000
  0.105928  0.084743  0.045460      8.000000
  0.127114  0.084743  0.045460      8.000000
  0.105928  0.105928  0.045460      4.000000
  0.127114  0.105928  0.045460      8.000000
  0.127114  0.127114  0.045460      4.000000
 


--------------------------------------------------------------------------------------------------------




 Dimension of arrays:
   k-points           NKPTS =     84   k-points in BZ     NKDIM =     84   number of bands    NBANDS=    128
   number of dos      NEDOS =    301   number of ions     NIONS =     12
   non local maximal  LDIM  =      6   non local SUM 2l+1 LMDIM =     18
   total plane-waves  NPLWV =  65856
   max r-space proj   IRMAX =      1   max aug-charges    IRDMAX=  27705
   dimension x,y,z NGX =    28 NGY =   28 NGZ =   84
   dimension x,y,z NGXF=    56 NGYF=   56 NGZF=  168
   support grid    NGXF=    56 NGYF=   56 NGZF=  168
   ions per type =               9   3
   NGX,Y,Z   is equivalent  to a cutoff of  12.82, 12.82, 12.70 a.u.
   NGXF,Y,Z  is equivalent  to a cutoff of  25.64, 25.64, 25.39 a.u.

 SYSTEM =  unknown system                          
 POSCAR =  Fe9 Pt3                                 

 Startparameter for this run:
   NWRITE =      2    write-flag & timer
   PREC   = accura    normal or accurate (medium, high low for compatibility)
   ISTART =      0    job   : 0-new  1-cont  2-samecut
   ICHARG =      2    charge: 1-file 2-atom 10-const
   ISPIN  =      2    spin polarized calculation?
   LNONCOLLINEAR =      F non collinear calculations
   LSORBIT =      F    spin-orbit coupling
   INIWAV =      1    electr: 0-lowe 1-rand  2-diag
   LASPH  =      F    aspherical Exc in radial PAW
 Electronic Relaxation 1
   ENCUT  =  520.0 eV  38.22 Ry    6.18 a.u.   6.75  6.75 20.45*2*pi/ulx,y,z
   ENINI  =  520.0     initial cutoff
   ENAUG  =  578.3 eV  augmentation charge cutoff
   NELM   =    200;   NELMIN=  2; NELMDL=  0     # of ELM steps 
   EDIFF  = 0.1E-05   stopping-criterion for ELM
   LREAL  =      F    real-space projection
   NLSPLINE    = F    spline interpolate recip. space projectors
   LCOMPAT=      F    compatible to vasp.4.4
   GGA_COMPAT  = T    GGA compatible to vasp.4.4-vasp.4.6
   LMAXPAW     = -100 max onsite density
   LMAXMIX     =    2 max onsite mixed and CHGCAR
   VOSKOWN=      0    Vosko Wilk Nusair interpolation
   ROPT   =    0.00000   0.00000
 Ionic relaxation
   EDIFFG = -.1E-01   stopping-criterion for IOM
   NSW    =      0    number of steps for IOM
   NBLOCK =      1;   KBLOCK =      1    inner block; outer block 
   IBRION =     -1    ionic relax: 0-MD 1-quasi-New 2-CG
   NFREE  =      0    steps in history (QN), initial steepest desc. (CG)
   ISIF   =      4    stress and relaxation
   IWAVPR =     10    prediction:  0-non 1-charg 2-wave 3-comb
   ISYM   =      2    0-nonsym 1-usesym 2-fastsym
   LCORR  =      T    Harris-Foulkes like correction to forces

   POTIM  = 0.5000    time-step for ionic-motion
   TEIN   =    0.0    initial temperature
   TEBEG  =    0.0;   TEEND  =   0.0 temperature during run
   SMASS  =  -3.00    Nose mass-parameter (am)
   estimated Nose-frequenzy (Omega)   =  0.10E-29 period in steps = 0.13E+47 mass=  -0.301E-27a.u.
   SCALEE = 1.0000    scale energy and forces
   NPACO  =    256;   APACO  = 10.0  distance and # of slots for P.C.
   PSTRESS=    0.0 pullay stress

  Mass of Ions in am
   POMASS =  55.85195.08
  Ionic Valenz
   ZVAL   =  14.00 10.00
  Atomic Wigner-Seitz radii
   RWIGS  =  -1.00 -1.00
  virtual crystal weights 
   VCA    =   1.00  1.00
   NELECT =     156.0000    total number of electrons
   NUPDOWN=      -1.0000    fix difference up-down

 DOS related values:
   EMIN   =  10.00;   EMAX   =-10.00  energy-range for DOS
   EFERMI =   0.00;   METHOD = LEGACY      
   ISMEAR =    -5;   SIGMA  =   0.20  broadening in eV -4-tet -1-fermi 0-gaus

 Electronic relaxation 2 (details)
   IALGO  =     38    algorithm
   LDIAG  =      T    sub-space diagonalisation (order eigenvalues)
   LSUBROT=      F    optimize rotation matrix (better conditioning)
   TURBO    =      0    0=normal 1=particle mesh
   IRESTART =      0    0=no restart 2=restart with 2 vectors
   NREBOOT  =      0    no. of reboots
   NMIN     =      0    reboot dimension
   EREF     =   0.00    reference energy to select bands
   IMIX   =      4    mixing-type and parameters
     AMIX     =   0.40;   BMIX     =  1.00
     AMIX_MAG =   1.60;   BMIX_MAG =  1.00
     AMIN     =   0.10
     WC   =   100.;   INIMIX=   1;  MIXPRE=   1;  MAXMIX= -45

 Intra band minimization:
   WEIMIN = 0.0000     energy-eigenvalue tresh-hold
   EBREAK =  0.20E-08  absolut break condition
   DEPER  =   0.30     relativ break condition  

   TIME   =   0.40     timestep for ELM

  volume/ion in A,a.u.               =      12.08        81.54
  Fermi-wavevector in a.u.,A,eV,Ry     =   1.677492  3.170000 38.286498  2.813978
  Thomas-Fermi vector in A             =   2.761748
 
 Write flags
   LWAVE        =      F    write WAVECAR
   LDOWNSAMPLE  =      F    k-point downsampling of WAVECAR
   LCHARG       =      T    write CHGCAR
   LVTOT        =      F    write LOCPOT, total local potential
   LVHAR        =      F    write LOCPOT, Hartree potential only
   WRT_POTENTIAL= false  ! write potential to hdf5 file
   LELF         =      F    write electronic localiz. function (ELF)
   LORBIT       =     11    0 simple, 1 ext, 2 COOP (PROOUT), +10 PAW based schemes


 Dipole corrections
   LMONO      =      F    monopole corrections only (constant potential shift)
   LDIPOL     =      F    correct potential (dipole corrections)
   IDIPOL     =      0    1-x, 2-y, 3-z, 4-all directions 
   EPSILON    =  1.0000000 bulk dielectric constant
   LVACPOTAV  =      F  vacuum potentials using an averaging scheme for the charge density
   VACPOTFLAT =  0.1000000 required flatness to determine vacuum potential
 Exchange correlation treatment:
   GGA     = PE    functional components
   XC_C    = 1    coefficients multiplying the functional components
   LIBXC   =     F    Libxc                    
   VOSKOWN =     0    Vosko Wilk Nusair interpolation
   LHFCALC =     F    Hartree Fock is set to
   LHFONE  =     F    Hartree Fock one center treatment
   AEXX    =    0.0000 exact exchange contribution

 Parameters of functionals:
   PE:
     No parameter
 
 Van der Waals corrections
   IVDW    =     0    specifies the selected vdW correction

 Linear response parameters
   LEPSILON=     F    determine dielectric tensor
   LRPA    =     F    only Hartree local field effects (RPA)
   LNABLA  =     F    use nabla operator in PAW spheres
   LVEL    =     F    velocity operator in full k-point grid
   CSHIFT  =0.1000    complex shift for real part using Kramers Kronig
   OMEGAMAX=  -1.0    maximum frequency
   DEG_THRESHOLD= 0.2000000E-02 threshold for treating states as degnerate
   RTIME   =   -0.100 relaxation time in fs
  (WPLASMAI=    0.000 imaginary part of plasma frequency in eV, 0.658/RTIME)
   DFIELD  = 0.0000000 0.0000000 0.0000000 field for delta impulse in time
 
  Optional k-point grid parameters
   LKPOINTS_OPT  =     F    use optional k-point grid
   KPOINTS_OPT_MODE=     1    mode for optional k-point grid
 
 Orbital magnetization related:
   ORBITALMAG=     F  switch on orbital magnetization
   LCHIMAG   =     F  perturbation theory with respect to B field
   DQ        =  0.001000  dq finite difference perturbation B field
   LLRAUG    =     F  two centre corrections for induced B field
   LBONE     =     F  B-component reconstruction in AE one-centre
   LVGVCALC  =     T  calculate vGv susceptibility
   LVGVAPPL  =     F  apply vGv susceptibility instead of pGv for G=0

 Random number generation:
   RANDOM_GENERATOR = DEFAULT
   PCG_SEED         = not used


--------------------------------------------------------------------------------------------------------


 Static calculation
 charge density and potential will be updated during run
 spin polarized calculation
 Variant of blocked Davidson
 Davidson routine will perform the subspace rotation
 perform sub-space diagonalisation
    after iterative eigenvector-optimisation
 modified Broyden-mixing scheme, WC =      100.0
 initial mixing is a Kerker type mixing with AMIX =  0.4000 and BMIX =      1.0000
 Hartree-type preconditioning will be used
 using additional bands           50
 reciprocal scheme for non local part
 use partial core corrections
 calculate Harris-corrections to forces 
   (improved forces if not selfconsistent)
 use gradient corrections 
 use of overlap-Matrix (Vanderbilt PP)
 Fermi weights with tetrahedron method with Bloechl corrections


--------------------------------------------------------------------------------------------------------


  energy-cutoff  :      520.00
  volume of cell :      145.00
      direct lattice vectors                 reciprocal lattice vectors
     3.630898386  0.000000000  0.000000000     0.275413932  0.000000000  0.000000000
     0.000000000  3.630898386  0.000000000     0.000000000  0.275413932  0.000000000
     0.000000000  0.000000000 10.998660894     0.000000000  0.000000000  0.090920159

  length of vectors
     3.630898386  3.630898386 10.998660894     0.275413932  0.275413932  0.090920159


 
 k-points in units of 2pi/SCALE and weight: pymatgen with grid density = 8800 / numb
   0.00000000  0.00000000  0.00000000       0.001
   0.02118569  0.00000000  0.00000000       0.006
   0.04237137  0.00000000  0.00000000       0.006
   0.06355706  0.00000000  0.00000000       0.006
   0.08474275  0.00000000  0.00000000       0.006
   0.10592844  0.00000000  0.00000000       0.006
   0.12711412  0.00000000  0.00000000       0.006
   0.02118569  0.02118569  0.00000000       0.006
   0.04237137  0.02118569  0.00000000       0.012
   0.06355706  0.02118569  0.00000000       0.012
   0.08474275  0.02118569  0.00000000       0.012
   0.10592844  0.02118569  0.00000000       0.012
   0.12711412  0.02118569  0.00000000       0.012
   0.04237137  0.04237137  0.00000000       0.006
   0.06355706  0.04237137  0.00000000       0.012
   0.08474275  0.04237137  0.00000000       0.012
   0.10592844  0.04237137  0.00000000       0.012
   0.12711412  0.04237137  0.00000000       0.012
   0.06355706  0.06355706  0.00000000       0.006
   0.08474275  0.06355706  0.00000000       0.012
   0.10592844  0.06355706  0.00000000       0.012
   0.12711412  0.06355706  0.00000000       0.012
   0.08474275  0.08474275  0.00000000       0.006
   0.10592844  0.08474275  0.00000000       0.012
   0.12711412  0.08474275  0.00000000       0.012
   0.10592844  0.10592844  0.00000000       0.006
   0.12711412  0.10592844  0.00000000       0.012
   0.12711412  0.12711412  0.00000000       0.006
   0.00000000  0.00000000  0.02273004       0.003
   0.02118569  0.00000000  0.02273004       0.012
   0.04237137  0.00000000  0.02273004       0.012
   0.06355706  0.00000000  0.02273004       0.012
   0.08474275  0.00000000  0.02273004       0.012
   0.10592844  0.00000000  0.02273004       0.012
   0.12711412  0.00000000  0.02273004       0.012
   0.02118569  0.02118569  0.02273004       0.012
   0.04237137  0.02118569  0.02273004       0.024
   0.06355706  0.02118569  0.02273004       0.024
   0.08474275  0.02118569  0.02273004       0.024
   0.10592844  0.02118569  0.02273004       0.024
   0.12711412  0.02118569  0.02273004       0.024
   0.04237137  0.04237137  0.02273004       0.012
   0.06355706  0.04237137  0.02273004       0.024
   0.08474275  0.04237137  0.02273004       0.024
   0.10592844  0.04237137  0.02273004       0.024
   0.12711412  0.04237137  0.02273004       0.024
   0.06355706  0.06355706  0.02273004       0.012
   0.08474275  0.06355706  0.02273004       0.024
   0.10592844  0.06355706  0.02273004       0.024
   0.12711412  0.06355706  0.02273004       0.024
   0.08474275  0.08474275  0.02273004       0.012
   0.10592844  0.08474275  0.02273004       0.024
   0.12711412  0.08474275  0.02273004       0.024
   0.10592844  0.10592844  0.02273004       0.012
   0.12711412  0.10592844  0.02273004       0.024
   0.12711412  0.12711412  0.02273004       0.012
   0.00000000  0.00000000  0.04546008       0.001
   0.02118569  0.00000000  0.04546008       0.006
   0.04237137  0.00000000  0.04546008       0.006
   0.06355706  0.00000000  0.04546008       0.006
   0.08474275  0.00000000  0.04546008       0.006
   0.10592844  0.00000000  0.04546008       0.006
   0.12711412  0.00000000  0.04546008       0.006
   0.02118569  0.02118569  0.04546008       0.006
   0.04237137  0.02118569  0.04546008       0.012
   0.06355706  0.02118569  0.04546008       0.012
   0.08474275  0.02118569  0.04546008       0.012
   0.10592844  0.02118569  0.04546008       0.012
   0.12711412  0.02118569  0.04546008       0.012
   0.04237137  0.04237137  0.04546008       0.006
   0.06355706  0.04237137  0.04546008       0.012
   0.08474275  0.04237137  0.04546008       0.012
   0.10592844  0.04237137  0.04546008       0.012
   0.12711412  0.04237137  0.04546008       0.012
   0.06355706  0.06355706  0.04546008       0.006
   0.08474275  0.06355706  0.04546008       0.012
   0.10592844  0.06355706  0.04546008       0.012
   0.12711412  0.06355706  0.04546008       0.012
   0.08474275  0.08474275  0.04546008       0.006
   0.10592844  0.08474275  0.04546008       0.012
   0.12711412  0.08474275  0.04546008       0.012
   0.10592844  0.10592844  0.04546008       0.006
   0.12711412  0.10592844  0.04546008       0.012
   0.12711412  0.12711412  0.04546008       0.006
 
 k-points in reciprocal lattice and weights: pymatgen with grid density = 8800 / numb
   0.00000000  0.00000000  0.00000000       0.001
   0.07692308  0.00000000  0.00000000       0.006
   0.15384615  0.00000000  0.00000000       0.006
   0.23076923  0.00000000  0.00000000       0.006
   0.30769231  0.00000000  0.00000000       0.006
   0.38461538  0.00000000  0.00000000       0.006
   0.46153846  0.00000000  0.00000000       0.006
   0.07692308  0.07692308  0.00000000       0.006
   0.15384615  0.07692308  0.00000000       0.012
   0.23076923  0.07692308  0.00000000       0.012
   0.30769231  0.07692308  0.00000000       0.012
   0.38461538  0.07692308  0.00000000       0.012
   0.46153846  0.07692308  0.00000000       0.012
   0.15384615  0.15384615  0.00000000       0.006
   0.23076923  0.15384615  0.00000000       0.012
   0.30769231  0.15384615  0.00000000       0.012
   0.38461538  0.15384615  0.00000000       0.012
   0.46153846  0.15384615  0.00000000       0.012
   0.23076923  0.23076923  0.00000000       0.006
   0.30769231  0.23076923  0.00000000       0.012
   0.38461538  0.23076923  0.00000000       0.012
   0.46153846  0.23076923  0.00000000       0.012
   0.30769231  0.30769231  0.00000000       0.006
   0.38461538  0.30769231  0.00000000       0.012
   0.46153846  0.30769231  0.00000000       0.012
   0.38461538  0.38461538  0.00000000       0.006
   0.46153846  0.38461538  0.00000000       0.012
   0.46153846  0.46153846  0.00000000       0.006
   0.00000000  0.00000000  0.25000000       0.003
   0.07692308  0.00000000  0.25000000       0.012
   0.15384615  0.00000000  0.25000000       0.012
   0.23076923  0.00000000  0.25000000       0.012
   0.30769231  0.00000000  0.25000000       0.012
   0.38461538  0.00000000  0.25000000       0.012
   0.46153846  0.00000000  0.25000000       0.012
   0.07692308  0.07692308  0.25000000       0.012
   0.15384615  0.07692308  0.25000000       0.024
   0.23076923  0.07692308  0.25000000       0.024
   0.30769231  0.07692308  0.25000000       0.024
   0.38461538  0.07692308  0.25000000       0.024
   0.46153846  0.07692308  0.25000000       0.024
   0.15384615  0.15384615  0.25000000       0.012
   0.23076923  0.15384615  0.25000000       0.024
   0.30769231  0.15384615  0.25000000       0.024
   0.38461538  0.15384615  0.25000000       0.024
   0.46153846  0.15384615  0.25000000       0.024
   0.23076923  0.23076923  0.25000000       0.012
   0.30769231  0.23076923  0.25000000       0.024
   0.38461538  0.23076923  0.25000000       0.024
   0.46153846  0.23076923  0.25000000       0.024
   0.30769231  0.30769231  0.25000000       0.012
   0.38461538  0.30769231  0.25000000       0.024
   0.46153846  0.30769231  0.25000000       0.024
   0.38461538  0.38461538  0.25000000       0.012
   0.46153846  0.38461538  0.25000000       0.024
   0.46153846  0.46153846  0.25000000       0.012
   0.00000000  0.00000000  0.50000000       0.001
   0.07692308  0.00000000  0.50000000       0.006
   0.15384615  0.00000000  0.50000000       0.006
   0.23076923  0.00000000  0.50000000       0.006
   0.30769231  0.00000000  0.50000000       0.006
   0.38461538  0.00000000  0.50000000       0.006
   0.46153846  0.00000000  0.50000000       0.006
   0.07692308  0.07692308  0.50000000       0.006
   0.15384615  0.07692308  0.50000000       0.012
   0.23076923  0.07692308  0.50000000       0.012
   0.30769231  0.07692308  0.50000000       0.012
   0.38461538  0.07692308  0.50000000       0.012
   0.46153846  0.07692308  0.50000000       0.012
   0.15384615  0.15384615  0.50000000       0.006
   0.23076923  0.15384615  0.50000000       0.012
   0.30769231  0.15384615  0.50000000       0.012
   0.38461538  0.15384615  0.50000000       0.012
   0.46153846  0.15384615  0.50000000       0.012
   0.23076923  0.23076923  0.50000000       0.006
   0.30769231  0.23076923  0.50000000       0.012
   0.38461538  0.23076923  0.50000000       0.012
   0.46153846  0.23076923  0.50000000       0.012
   0.30769231  0.30769231  0.50000000       0.006
   0.38461538  0.30769231  0.50000000       0.012
   0.46153846  0.30769231  0.50000000       0.012
   0.38461538  0.38461538  0.50000000       0.006
   0.46153846  0.38461538  0.50000000       0.012
   0.46153846  0.46153846  0.50000000       0.006
 
 position of ions in fractional coordinates (direct lattice) 
   0.00000000  0.50000000  0.16651564
   0.00000000  0.50000000  0.49918145
   0.00000000  0.50000000  0.83443583
   0.50000000  0.50000000  0.00385839
   0.50000000  0.50000000  0.33507722
   0.50000000  0.50000000  0.66484048
   0.50000000  0.00000000  0.16651564
   0.50000000  0.00000000  0.49918145
   0.50000000  0.00000000  0.83443583
   0.00000000  0.00000000  0.99890081
   0.00000000  0.00000000  0.33015919
   0.00000000  0.00000000  0.66689806
 
 position of ions in cartesian coordinates  (Angst):
   0.00000000  1.81544919  1.83144905
   0.00000000  1.81544919  5.49032755
   0.00000000  1.81544919  9.17767673
   1.81544919  1.81544919  0.04243712
   1.81544919  1.81544919  3.68540071
   1.81544919  1.81544919  7.31235499
   1.81544919  0.00000000  1.83144905
   1.81544919  0.00000000  5.49032755
   1.81544919  0.00000000  9.17767673
   0.00000000  0.00000000 10.98657126
   0.00000000  0.00000000  3.63130899
   0.00000000  0.00000000  7.33498565
 


--------------------------------------------------------------------------------------------------------


 k-point     1 :   0.0000 0.0000 0.0000  plane waves:    3945
 k-point     2 :   0.0769 0.0000 0.0000  plane waves:    3929
 k-point     3 :   0.1538 0.0000 0.0000  plane waves:    3915
 k-point     4 :   0.2308 0.0000 0.0000  plane waves:    3915
 k-point     5 :   0.3077 0.0000 0.0000  plane waves:    3910
 k-point     6 :   0.3846 0.0000 0.0000  plane waves:    3896
 k-point     7 :   0.4615 0.0000 0.0000  plane waves:    3896
 k-point     8 :   0.0769 0.0769 0.0000  plane waves:    3921
 k-point     9 :   0.1538 0.0769 0.0000  plane waves:    3916
 k-point    10 :   0.2308 0.0769 0.0000  plane waves:    3914
 k-point    11 :   0.3077 0.0769 0.0000  plane waves:    3904
 k-point    12 :   0.3846 0.0769 0.0000  plane waves:    3902
 k-point    13 :   0.4615 0.0769 0.0000  plane waves:    3886
 k-point    14 :   0.1538 0.1538 0.0000  plane waves:    3913
 k-point    15 :   0.2308 0.1538 0.0000  plane waves:    3904
 k-point    16 :   0.3077 0.1538 0.0000  plane waves:    3907
 k-point    17 :   0.3846 0.1538 0.0000  plane waves:    3913
 k-point    18 :   0.4615 0.1538 0.0000  plane waves:    3911
 k-point    19 :   0.2308 0.2308 0.0000  plane waves:    3880
 k-point    20 :   0.3077 0.2308 0.0000  plane waves:    3882
 k-point    21 :   0.3846 0.2308 0.0000  plane waves:    3896
 k-point    22 :   0.4615 0.2308 0.0000  plane waves:    3902
 k-point    23 :   0.3077 0.3077 0.0000  plane waves:    3896
 k-point    24 :   0.3846 0.3077 0.0000  plane waves:    3900
 k-point    25 :   0.4615 0.3077 0.0000  plane waves:    3915
 k-point    26 :   0.3846 0.3846 0.0000  plane waves:    3908
 k-point    27 :   0.4615 0.3846 0.0000  plane waves:    3914
 k-point    28 :   0.4615 0.4615 0.0000  plane waves:    3908
 k-point    29 :   0.0000 0.0000 0.2500  plane waves:    3929
 k-point    30 :   0.0769 0.0000 0.2500  plane waves:    3910
 k-point    31 :   0.1538 0.0000 0.2500  plane waves:    3906
 k-point    32 :   0.2308 0.0000 0.2500  plane waves:    3903
 k-point    33 :   0.3077 0.0000 0.2500  plane waves:    3905
 k-point    34 :   0.3846 0.0000 0.2500  plane waves:    3904
 k-point    35 :   0.4615 0.0000 0.2500  plane waves:    3886
 k-point    36 :   0.0769 0.0769 0.2500  plane waves:    3910
 k-point    37 :   0.1538 0.0769 0.2500  plane waves:    3920
 k-point    38 :   0.2308 0.0769 0.2500  plane waves:    3904
 k-point    39 :   0.3077 0.0769 0.2500  plane waves:    3907
 k-point    40 :   0.3846 0.0769 0.2500  plane waves:    3901
 k-point    41 :   0.4615 0.0769 0.2500  plane waves:    3890
 k-point    42 :   0.1538 0.1538 0.2500  plane waves:    3900
 k-point    43 :   0.2308 0.1538 0.2500  plane waves:    3899
 k-point    44 :   0.3077 0.1538 0.2500  plane waves:    3898
 k-point    45 :   0.3846 0.1538 0.2500  plane waves:    3905
 k-point    46 :   0.4615 0.1538 0.2500  plane waves:    3890
 k-point    47 :   0.2308 0.2308 0.2500  plane waves:    3900
 k-point    48 :   0.3077 0.2308 0.2500  plane waves:    3897
 k-point    49 :   0.3846 0.2308 0.2500  plane waves:    3895
 k-point    50 :   0.4615 0.2308 0.2500  plane waves:    3903
 k-point    51 :   0.3077 0.3077 0.2500  plane waves:    3895
 k-point    52 :   0.3846 0.3077 0.2500  plane waves:    3904
 k-point    53 :   0.4615 0.3077 0.2500  plane waves:    3906
 k-point    54 :   0.3846 0.3846 0.2500  plane waves:    3914
 k-point    55 :   0.4615 0.3846 0.2500  plane waves:    3927
 k-point    56 :   0.4615 0.4615 0.2500  plane waves:    3939
 k-point    57 :   0.0000 0.0000 0.5000  plane waves:    3872
 k-point    58 :   0.0769 0.0000 0.5000  plane waves:    3896
 k-point    59 :   0.1538 0.0000 0.5000  plane waves:    3908
 k-point    60 :   0.2308 0.0000 0.5000  plane waves:    3906
 k-point    61 :   0.3077 0.0000 0.5000  plane waves:    3908
 k-point    62 :   0.3846 0.0000 0.5000  plane waves:    3912
 k-point    63 :   0.4615 0.0000 0.5000  plane waves:    3880
 k-point    64 :   0.0769 0.0769 0.5000  plane waves:    3888
 k-point    65 :   0.1538 0.0769 0.5000  plane waves:    3900
 k-point    66 :   0.2308 0.0769 0.5000  plane waves:    3900
 k-point    67 :   0.3077 0.0769 0.5000  plane waves:    3902
 k-point    68 :   0.3846 0.0769 0.5000  plane waves:    3912
 k-point    69 :   0.4615 0.0769 0.5000  plane waves:    3898
 k-point    70 :   0.1538 0.1538 0.5000  plane waves:    3908
 k-point    71 :   0.2308 0.1538 0.5000  plane waves:    3912
 k-point    72 :   0.3077 0.1538 0.5000  plane waves:    3902
 k-point    73 :   0.3846 0.1538 0.5000  plane waves:    3890
 k-point    74 :   0.4615 0.1538 0.5000  plane waves:    3890
 k-point    75 :   0.2308 0.2308 0.5000  plane waves:    3912
 k-point    76 :   0.3077 0.2308 0.5000  plane waves:    3894
 k-point    77 :   0.3846 0.2308 0.5000  plane waves:    3900
 k-point    78 :   0.4615 0.2308 0.5000  plane waves:    3906
 k-point    79 :   0.3077 0.3077 0.5000  plane waves:    3914
 k-point    80 :   0.3846 0.3077 0.5000  plane waves:    3900
 k-point    81 :   0.4615 0.3077 0.5000  plane waves:    3918
 k-point    82 :   0.3846 0.3846 0.5000  plane waves:    3908
 k-point    83 :   0.4615 0.3846 0.5000  plane waves:    3920
 k-point    84 :   0.4615 0.4615 0.5000  plane waves:    3928

 maximum and minimum number of plane-waves per node :      3945     3872

 maximum number of plane-waves:      3945
 maximum index in each direction: 
   IXMAX=    6   IYMAX=    6   IZMAX=   20
   IXMIN=   -7   IYMIN=   -7   IZMIN=  -20


 serial   3D FFT for wavefunctions
 parallel 3D FFT for charge:
    minimum data exchange during FFTs selected (reduces bandwidth)


 total amount of memory used by VASP MPI-rank0   179901. kBytes
=======================================================================

   base      :      30000. kBytes
   nonl-proj :      96755. kBytes
   fftplans  :        888. kBytes
   grid      :       6813. kBytes
   one-center:        373. kBytes
   wavefun   :      45072. kBytes
 
     INWAV:  cpu time      0.0000: real time      0.0000
 Broyden mixing: mesh for mixing (old mesh)
   NGX = 13   NGY = 13   NGZ = 41
  (NGX  = 56   NGY  = 56   NGZ  =168)
  gives a total of   6929 points

 initial charge density was supplied:
 charge density of overlapping atoms calculated
 number of electron     156.0000000 magnetization       8.0350000
 keeping initial charge density in first step


--------------------------------------------------------------------------------------------------------


 Maximum index for augmentation-charges         1083 (set IRDMAX)


--------------------------------------------------------------------------------------------------------


 First call to EWALD:  gamma=   0.337
 Maximum number of real-space cells 4x 4x 2
 Maximum number of reciprocal cells 2x 2x 5

    FEWALD:  cpu time      0.0029: real time      0.0030


--------------------------------------- Ionic step        1  -------------------------------------------




--------------------------------------- Iteration      1(   1)  ---------------------------------------


    POTLOK:  cpu time      0.0284: real time      0.0508
    SETDIJ:  cpu time      0.0100: real time      0.0105
     EDDAV:  cpu time      5.7567: real time      5.7982
 BZINTS: Fermi energy:   24.272424;  156.000000 electrons
         Band energy: 0.655143E+03;  BLOECHL correction:   -0.066060
       DOS:  cpu time      0.1264: real time      0.1277
    --------------------------------------------
      LOOP:  cpu time      5.9215: real time      5.9872

 eigenvalue-minimisations  : 43168
 total energy-change (2. order) : 0.1760927E+04  (-0.8417368E+04)
 number of electron     156.0000000 magnetization       8.0350000
 augmentation part      156.0000000 magnetization       8.0350000

 Free energy of the ion-electron system (eV)
  ---------------------------------------------------
  alpha Z        PSCENC =      1173.72503148
  Ewald energy   TEWEN  =    -18536.27180572
  -Hartree energ DENC   =     -5770.78788836
  -exchange      EXHF   =         0.00000000
  -V(xc)+E(xc)   XCENC  =       659.07298824
  PAW double counting   =     20095.36307281   -20819.42080620
  entropy T*S    EENTRO =         0.00000000
  eigenvalues    EBANDS =       655.14334178
  atomic energy  EATOM  =     24304.10294433
  Solvation  Ediel_sol  =         0.00000000
  ---------------------------------------------------
  free energy    TOTEN  =      1760.92687835 eV

  energy without entropy =     1760.92687835  energy(sigma->0) =     1760.92687835


--------------------------------------------------------------------------------------------------------




--------------------------------------- Iteration      1(   2)  ---------------------------------------


     EDDAV:  cpu time      5.7412: real time      5.7950
 BZINTS: Fermi energy:   13.325396;  156.000000 electrons
         Band energy:-0.110035E+04;  BLOECHL correction:   -0.020900
       DOS:  cpu time      0.1271: real time      0.1281
    --------------------------------------------
      LOOP:  cpu time      5.8683: real time      5.9231

 eigenvalue-minimisations  : 43040
 total energy-change (2. order) :-0.1755496E+04  (-0.1665846E+04)
 number of electron     156.0000000 magnetization       8.0350000
 augmentation part      156.0000000 magnetization       8.0350000

 Free energy of the ion-electron system (eV)
  ---------------------------------------------------
  alpha Z        PSCENC =      1173.72503148
  Ewald energy   TEWEN  =    -18536.27180572
  -Hartree energ DENC   =     -5770.78788836
  -exchange      EXHF   =         0.00000000
  -V(xc)+E(xc)   XCENC  =       659.07298824
  PAW double counting   =     20095.36307281   -20819.42080620
  entropy T*S    EENTRO =         0.00000000
  eigenvalues    EBANDS =     -1100.35308955
  atomic energy  EATOM  =     24304.10294433
  Solvation  Ediel_sol  =         0.00000000
  ---------------------------------------------------
  free energy    TOTEN  =         5.43044701 eV

  energy without entropy =        5.43044701  energy(sigma->0) =        5.43044701


--------------------------------------------------------------------------------------------------------




--------------------------------------- Iteration      1(   3)  ---------------------------------------


     EDDAV:  cpu time      6.7681: real time      6.8133
 BZINTS: Fermi energy:   12.741561;  156.000000 electrons
         Band energy:-0.120924E+04;  BLOECHL correction:   -0.025180
       DOS:  cpu time      0.1269: real time      0.1282
    --------------------------------------------
      LOOP:  cpu time      6.8951: real time      6.9415

 eigenvalue-minimisations  : 50656
 total energy-change (2. order) :-0.1088899E+03  (-0.1075806E+03)
 number of electron     156.0000000 magnetization       8.0350000
 augmentation part      156.0000000 magnetization       8.0350000

 Free energy of the ion-electron system (eV)
  ---------------------------------------------------
  alpha Z        PSCENC =      1173.72503148
  Ewald energy   TEWEN  =    -18536.27180572
  -Hartree energ DENC   =     -5770.78788836
  -exchange      EXHF   =         0.00000000
  -V(xc)+E(xc)   XCENC  =       659.07298824
  PAW double counting   =     20095.36307281   -20819.42080620
  entropy T*S    EENTRO =         0.00000000
  eigenvalues    EBANDS =     -1209.24297823
  atomic energy  EATOM  =     24304.10294433
  Solvation  Ediel_sol  =         0.00000000
  ---------------------------------------------------
  free energy    TOTEN  =      -103.45944167 eV

  energy without entropy =     -103.45944167  energy(sigma->0) =     -103.45944167


--------------------------------------------------------------------------------------------------------




--------------------------------------- Iteration      1(   4)  ---------------------------------------


     EDDAV:  cpu time      5.9709: real time      6.0266
 BZINTS: Fermi energy:   12.736524;  156.000000 electrons
         Band energy:-0.121076E+04;  BLOECHL correction:   -0.025178
       DOS:  cpu time      0.1268: real time      0.1278
    --------------------------------------------
      LOOP:  cpu time      6.0977: real time      6.1544

 eigenvalue-minimisations  : 45952
 total energy-change (2. order) :-0.1514865E+01  (-0.1514586E+01)
 number of electron     156.0000000 magnetization       8.0350000
 augmentation part      156.0000000 magnetization       8.0350000

 Free energy of the ion-electron system (eV)
  ---------------------------------------------------
  alpha Z        PSCENC =      1173.72503148
  Ewald energy   TEWEN  =    -18536.27180572
  -Hartree energ DENC   =     -5770.78788836
  -exchange      EXHF   =         0.00000000
  -V(xc)+E(xc)   XCENC  =       659.07298824
  PAW double counting   =     20095.36307281   -20819.42080620
  entropy T*S    EENTRO =         0.00000000
  eigenvalues    EBANDS =     -1210.75784279
  atomic energy  EATOM  =     24304.10294433
  Solvation  Ediel_sol  =         0.00000000
  ---------------------------------------------------
  free energy    TOTEN  =      -104.97430622 eV

  energy without entropy =     -104.97430622  energy(sigma->0) =     -104.97430622


--------------------------------------------------------------------------------------------------------




--------------------------------------- Iteration      1(   5)  ---------------------------------------


     EDDAV:  cpu time      7.1774: real time      7.2389
 BZINTS: Fermi energy:   12.736477;  156.000000 electrons
         Band energy:-0.121079E+04;  BLOECHL correction:   -0.025178
       DOS:  cpu time      0.1261: real time      0.1271
    CHARGE:  cpu time      0.1514: real time      0.1528
    MIXING:  cpu time      0.0073: real time      0.0075
    --------------------------------------------
      LOOP:  cpu time      7.4622: real time      7.5263

 eigenvalue-minimisations  : 53024
 total energy-change (2. order) :-0.2734820E-01  (-0.2734758E-01)
 number of electron     155.9999821 magnetization       7.4690143
 augmentation part       79.2515468 magnetization       5.6303374

 Broyden mixing:
  rms(total) = 0.41679E+01    rms(broyden)= 0.41674E+01
  rms(prec ) = 0.46429E+01
  weight for this iteration     100.00

 Free energy of the ion-electron system (eV)
  ---------------------------------------------------
  alpha Z        PSCENC =      1173.72503148
  Ewald energy   TEWEN  =    -18536.27180572
  -Hartree energ DENC   =     -5770.78788836
  -exchange      EXHF   =         0.00000000
  -V(xc)+E(xc)   XCENC  =       659.07298824
  PAW double counting   =     20095.36307281   -20819.42080620
  entropy T*S    EENTRO =         0.00000000
  eigenvalues    EBANDS =     -1210.78519098
  atomic energy  EATOM  =     24304.10294433
  Solvation  Ediel_sol  =         0.00000000
  ---------------------------------------------------
  free energy    TOTEN  =      -105.00165442 eV

  energy without entropy =     -105.00165442  energy(sigma->0) =     -105.00165442


--------------------------------------------------------------------------------------------------------




--------------------------------------- Iteration      1(   6)  ---------------------------------------


    POTLOK:  cpu time      0.0441: real time      0.0450
    SETDIJ:  cpu time      0.0080: real time      0.0080
     EDDAV:  cpu time      7.0138: real time      7.0601
 BZINTS: Fermi energy:   10.079021;  156.000000 electrons
         Band energy:-0.161873E+04;  BLOECHL correction:   -0.026231
       DOS:  cpu time      0.1328: real time      0.1338
    CHARGE:  cpu time      0.1470: real time      0.1481
    MIXING:  cpu time      0.0041: real time      0.0045
    --------------------------------------------
      LOOP:  cpu time      7.3498: real time      7.3994

 eigenvalue-minimisations  : 51360
 total energy-change (2. order) :-0.2903353E+01  (-0.1370216E+02)
 number of electron     155.9999798 magnetization       7.2010106
 augmentation part       87.8591548 magnetization       5.7329515

 Broyden mixing:
  rms(total) = 0.56956E+01    rms(broyden)= 0.56954E+01
  rms(prec ) = 0.86381E+01
  weight for this iteration     100.00

 eigenvalues of (default mixing * dielectric matrix)
  average eigenvalue GAMMA=   0.3163
  0.3163

 Free energy of the ion-electron system (eV)
  ---------------------------------------------------
  alpha Z        PSCENC =      1173.72503148
  Ewald energy   TEWEN  =    -18536.27180572
  -Hartree energ DENC   =     -5369.69179946
  -exchange      EXHF   =         0.00000000
  -V(xc)+E(xc)   XCENC  =       641.47532170
  PAW double counting   =     20688.95331403   -21391.46702814
  entropy T*S    EENTRO =         0.00000000
  eigenvalues    EBANDS =     -1618.73098587
  atomic energy  EATOM  =     24304.10294433
  Solvation  Ediel_sol  =         0.00000000
  ---------------------------------------------------
  free energy    TOTEN  =      -107.90500765 eV

  energy without entropy =     -107.90500765  energy(sigma->0) =     -107.90500765


--------------------------------------------------------------------------------------------------------




--------------------------------------- Iteration      1(   7)  ---------------------------------------


    POTLOK:  cpu time      0.0305: real time      0.0443
    SETDIJ:  cpu time      0.0096: real time      0.0096
     EDDAV:  cpu time      7.1858: real time      7.2311
 BZINTS: Fermi energy:   11.025981;  156.000000 electrons
         Band energy:-0.153758E+04;  BLOECHL correction:   -0.020258
       DOS:  cpu time      0.1315: real time      0.1325
    CHARGE:  cpu time      0.1487: real time      0.1495
    MIXING:  cpu time      0.0028: real time      0.0028
    --------------------------------------------
      LOOP:  cpu time      7.5089: real time      7.5698

 eigenvalue-minimisations  : 53440
 total energy-change (2. order) :-0.1042917E+02  (-0.4599225E+02)
 number of electron     155.9999811 magnetization       6.4904527
 augmentation part       85.2115620 magnetization       5.7267880

 Broyden mixing:
  rms(total) = 0.67339E+01    rms(broyden)= 0.67335E+01
  rms(prec ) = 0.10818E+02
  weight for this iteration     100.00

 eigenvalues of (default mixing * dielectric matrix)
  average eigenvalue GAMMA=   0.3459
  0.5743  0.1174

 Free energy of the ion-electron system (eV)
  ---------------------------------------------------
  alpha Z        PSCENC =      1173.72503148
  Ewald energy   TEWEN  =    -18536.27180572
  -Hartree energ DENC   =     -5446.68449746
  -exchange      EXHF   =         0.00000000
  -V(xc)+E(xc)   XCENC  =       643.73993759
  PAW double counting   =     21037.27244937   -21756.63605208
  entropy T*S    EENTRO =         0.00000000
  eigenvalues    EBANDS =     -1537.58218251
  atomic energy  EATOM  =     24304.10294433
  Solvation  Ediel_sol  =         0.00000000
  ---------------------------------------------------
  free energy    TOTEN  =      -118.33417500 eV

  energy without entropy =     -118.33417500  energy(sigma->0) =     -118.33417500


--------------------------------------------------------------------------------------------------------




--------------------------------------- Iteration      1(   8)  ---------------------------------------


    POTLOK:  cpu time      0.0294: real time      0.0442
    SETDIJ:  cpu time      0.0081: real time      0.0081
     EDDAV:  cpu time      6.8538: real time      6.8995
 BZINTS: Fermi energy:   11.338866;  156.000000 electrons
         Band energy:-0.143108E+04;  BLOECHL correction:   -0.022626
       DOS:  cpu time      0.1331: real time      0.1340
    CHARGE:  cpu time      0.1468: real time      0.1476
    MIXING:  cpu time      0.0016: real time      0.0016
    --------------------------------------------
      LOOP:  cpu time      7.1728: real time      7.2351

 eigenvalue-minimisations  : 51808
 total energy-change (2. order) : 0.1888941E+02  (-0.1217495E+02)
 number of electron     155.9999813 magnetization       6.2121188
 augmentation part       83.4775884 magnetization       4.1702393

 Broyden mixing:
  rms(total) = 0.38797E+01    rms(broyden)= 0.38792E+01
  rms(prec ) = 0.54277E+01
  weight for this iteration     100.00

 eigenvalues of (default mixing * dielectric matrix)
  average eigenvalue GAMMA=   0.4124
  0.8188  0.3021  0.1162

 Free energy of the ion-electron system (eV)
  ---------------------------------------------------
  alpha Z        PSCENC =      1173.72503148
  Ewald energy   TEWEN  =    -18536.27180572
  -Hartree energ DENC   =     -5514.56772010
  -exchange      EXHF   =         0.00000000
  -V(xc)+E(xc)   XCENC  =       645.60126680
  PAW double counting   =     21563.93922515   -22304.89308426
  entropy T*S    EENTRO =         0.00000000
  eigenvalues    EBANDS =     -1431.08062570
  atomic energy  EATOM  =     24304.10294433
  Solvation  Ediel_sol  =         0.00000000
  ---------------------------------------------------
  free energy    TOTEN  =       -99.44476802 eV

  energy without entropy =      -99.44476802  energy(sigma->0) =      -99.44476802


--------------------------------------------------------------------------------------------------------




--------------------------------------- Iteration      1(   9)  ---------------------------------------


    POTLOK:  cpu time      0.0298: real time      0.0447
    SETDIJ:  cpu time      0.0073: real time      0.0074
     EDDAV:  cpu time      6.7393: real time      6.7828
 BZINTS: Fermi energy:   11.342417;  156.000000 electrons
         Band energy:-0.144585E+04;  BLOECHL correction:   -0.016127
       DOS:  cpu time      0.1317: real time      0.1327
    CHARGE:  cpu time      0.1482: real time      0.1492
    MIXING:  cpu time      0.0018: real time      0.0018
    --------------------------------------------
      LOOP:  cpu time      7.0581: real time      7.1186

 eigenvalue-minimisations  : 50720
 total energy-change (2. order) :-0.4398851E+01  (-0.2109494E+02)
 number of electron     155.9999817 magnetization       5.5649714
 augmentation part       83.7316986 magnetization       4.7015241

 Broyden mixing:
  rms(total) = 0.47373E+01    rms(broyden)= 0.47369E+01
  rms(prec ) = 0.66616E+01
  weight for this iteration     100.00

 eigenvalues of (default mixing * dielectric matrix)
  average eigenvalue GAMMA=   0.4632
  1.2149  0.4194  0.1193  0.0993

 Free energy of the ion-electron system (eV)
  ---------------------------------------------------
  alpha Z        PSCENC =      1173.72503148
  Ewald energy   TEWEN  =    -18536.27180572
  -Hartree energ DENC   =     -5498.97187868
  -exchange      EXHF   =         0.00000000
  -V(xc)+E(xc)   XCENC  =       644.87897847
  PAW double counting   =     21760.43661087   -22505.89568089
  entropy T*S    EENTRO =         0.00000000
  eigenvalues    EBANDS =     -1445.84781912
  atomic energy  EATOM  =     24304.10294433
  Solvation  Ediel_sol  =         0.00000000
  ---------------------------------------------------
  free energy    TOTEN  =      -103.84361926 eV

  energy without entropy =     -103.84361926  energy(sigma->0) =     -103.84361926


--------------------------------------------------------------------------------------------------------




--------------------------------------- Iteration      1(  10)  ---------------------------------------


    POTLOK:  cpu time      0.0438: real time      0.0446
    SETDIJ:  cpu time      0.0079: real time      0.0079
     EDDAV:  cpu time      6.8823: real time      6.9272
 BZINTS: Fermi energy:   10.804024;  156.000000 electrons
         Band energy:-0.148346E+04;  BLOECHL correction:   -0.021201
       DOS:  cpu time      0.1325: real time      0.1335
    CHARGE:  cpu time      0.1462: real time      0.1470
    MIXING:  cpu time      0.0018: real time      0.0018
    --------------------------------------------
      LOOP:  cpu time      7.2144: real time      7.2621

 eigenvalue-minimisations  : 51072
 total energy-change (2. order) : 0.7571717E+01  (-0.9347314E+01)
 number of electron     155.9999810 magnetization       5.4288098
 augmentation part       84.6990880 magnetization       4.4348139

 Broyden mixing:
  rms(total) = 0.31851E+01    rms(broyden)= 0.31848E+01
  rms(prec ) = 0.47859E+01
  weight for this iteration     100.00

 eigenvalues of (default mixing * dielectric matrix)
  average eigenvalue GAMMA=   0.4075
  1.2111  0.4231  0.1531  0.1513  0.0990

 Free energy of the ion-electron system (eV)
  ---------------------------------------------------
  alpha Z        PSCENC =      1173.72503148
  Ewald energy   TEWEN  =    -18536.27180572
  -Hartree energ DENC   =     -5447.72881547
  -exchange      EXHF   =         0.00000000
  -V(xc)+E(xc)   XCENC  =       642.90578652
  PAW double counting   =     22048.61092885   -22798.15845394
  entropy T*S    EENTRO =         0.00000000
  eigenvalues    EBANDS =     -1483.45751866
  atomic energy  EATOM  =     24304.10294433
  Solvation  Ediel_sol  =         0.00000000
  ---------------------------------------------------
  free energy    TOTEN  =       -96.27190261 eV

  energy without entropy =      -96.27190261  energy(sigma->0) =      -96.27190261


--------------------------------------------------------------------------------------------------------




--------------------------------------- Iteration      1(  11)  ---------------------------------------


    POTLOK:  cpu time      0.0323: real time      0.0446
    SETDIJ:  cpu time      0.0077: real time      0.0078
     EDDAV:  cpu time      7.0393: real time      7.0854
 BZINTS: Fermi energy:   10.758826;  156.000000 electrons
         Band energy:-0.148316E+04;  BLOECHL correction:   -0.026306
       DOS:  cpu time      0.2395: real time      0.2409
    CHARGE:  cpu time      0.1467: real time      0.1476
    MIXING:  cpu time      0.0019: real time      0.0019
    --------------------------------------------
      LOOP:  cpu time      7.4675: real time      7.5281

 eigenvalue-minimisations  : 52448
 total energy-change (2. order) : 0.4125217E+01  (-0.3064410E+01)
 number of electron     155.9999811 magnetization       5.3434409
 augmentation part       84.5576829 magnetization       3.9853152

 Broyden mixing:
  rms(total) = 0.12629E+01    rms(broyden)= 0.12626E+01
  rms(prec ) = 0.19174E+01
  weight for this iteration     100.00

 eigenvalues of (default mixing * dielectric matrix)
  average eigenvalue GAMMA=   0.4159
  1.1770  0.4965  0.4965  0.1349  0.0953  0.0953

 Free energy of the ion-electron system (eV)
  ---------------------------------------------------
  alpha Z        PSCENC =      1173.72503148
  Ewald energy   TEWEN  =    -18536.27180572
  -Hartree energ DENC   =     -5443.08067908
  -exchange      EXHF   =         0.00000000
  -V(xc)+E(xc)   XCENC  =       642.78801498
  PAW double counting   =     22083.31859692   -22833.56726377
  entropy T*S    EENTRO =         0.00000000
  eigenvalues    EBANDS =     -1483.16152474
  atomic energy  EATOM  =     24304.10294433
  Solvation  Ediel_sol  =         0.00000000
  ---------------------------------------------------
  free energy    TOTEN  =       -92.14668559 eV

  energy without entropy =      -92.14668559  energy(sigma->0) =      -92.14668559


--------------------------------------------------------------------------------------------------------




--------------------------------------- Iteration      1(  12)  ---------------------------------------


    POTLOK:  cpu time      0.0299: real time      0.0447
    SETDIJ:  cpu time      0.0080: real time      0.0081
     EDDAV:  cpu time      7.1139: real time      7.1611
 BZINTS: Fermi energy:   10.816286;  156.000000 electrons
         Band energy:-0.148470E+04;  BLOECHL correction:   -0.029550
       DOS:  cpu time      0.1321: real time      0.1331
    CHARGE:  cpu time      0.1490: real time      0.1498
    MIXING:  cpu time      0.0019: real time      0.0019
    --------------------------------------------
      LOOP:  cpu time      7.4348: real time      7.4986

 eigenvalue-minimisations  : 52800
 total energy-change (2. order) :-0.2503629E+01  (-0.3147742E+01)
 number of electron     155.9999809 magnetization       5.3477801
 augmentation part       84.5121227 magnetization       3.6615334

 Broyden mixing:
  rms(total) = 0.27463E+01    rms(broyden)= 0.27459E+01
  rms(prec ) = 0.43785E+01
  weight for this iteration     100.00

 eigenvalues of (default mixing * dielectric matrix)
  average eigenvalue GAMMA=   0.3864
  1.2223  0.5213  0.5213  0.1489  0.1010  0.1010  0.0892

 Free energy of the ion-electron system (eV)
  ---------------------------------------------------
  alpha Z        PSCENC =      1173.72503148
  Ewald energy   TEWEN  =    -18536.27180572
  -Hartree energ DENC   =     -5442.57705036
  -exchange      EXHF   =         0.00000000
  -V(xc)+E(xc)   XCENC  =       642.97073744
  PAW double counting   =     22122.59057681   -22874.48803040
  entropy T*S    EENTRO =         0.00000000
  eigenvalues    EBANDS =     -1484.70271818
  atomic energy  EATOM  =     24304.10294433
  Solvation  Ediel_sol  =         0.00000000
  ---------------------------------------------------
  free energy    TOTEN  =       -94.65031461 eV

  energy without entropy =      -94.65031461  energy(sigma->0) =      -94.65031461


--------------------------------------------------------------------------------------------------------




--------------------------------------- Iteration      1(  13)  ---------------------------------------


    POTLOK:  cpu time      0.0292: real time      0.0443
    SETDIJ:  cpu time      0.0088: real time      0.0088
     EDDAV:  cpu time      7.0185: real time      7.0643
 BZINTS: Fermi energy:   10.760186;  156.000000 electrons
         Band energy:-0.148195E+04;  BLOECHL correction:   -0.027879
       DOS:  cpu time      0.1322: real time      0.1331
    CHARGE:  cpu time      0.1472: real time      0.1480
    MIXING:  cpu time      0.0018: real time      0.0019
    --------------------------------------------
      LOOP:  cpu time      7.3376: real time      7.4005

 eigenvalue-minimisations  : 52416
 total energy-change (2. order) : 0.2258534E+01  (-0.2564657E+01)
 number of electron     155.9999812 magnetization       5.4098503
 augmentation part       84.5213609 magnetization       3.8839092

 Broyden mixing:
  rms(total) = 0.84251E+00    rms(broyden)= 0.84180E+00
  rms(prec ) = 0.10877E+01
  weight for this iteration     100.00

 eigenvalues of (default mixing * dielectric matrix)
  average eigenvalue GAMMA=   0.3836
  1.1976  0.5858  0.5858  0.2964  0.1294  0.1118  0.0884  0.0736

 Free energy of the ion-electron system (eV)
  ---------------------------------------------------
  alpha Z        PSCENC =      1173.72503148
  Ewald energy   TEWEN  =    -18536.27180572
  -Hartree energ DENC   =     -5441.97657839
  -exchange      EXHF   =         0.00000000
  -V(xc)+E(xc)   XCENC  =       642.98407682
  PAW double counting   =     22151.99113634   -22904.99730240
  entropy T*S    EENTRO =         0.00000000
  eigenvalues    EBANDS =     -1481.94928351
  atomic energy  EATOM  =     24304.10294433
  Solvation  Ediel_sol  =         0.00000000
  ---------------------------------------------------
  free energy    TOTEN  =       -92.39178105 eV

  energy without entropy =      -92.39178105  energy(sigma->0) =      -92.39178105


--------------------------------------------------------------------------------------------------------




--------------------------------------- Iteration      1(  14)  ---------------------------------------


    POTLOK:  cpu time      0.0310: real time      0.0448
    SETDIJ:  cpu time      0.0081: real time      0.0081
     EDDAV:  cpu time      7.0591: real time      7.1048
[...]
    113      26.0062      0.00000
    114      26.4044      0.00000
    115      26.4418      0.00000
    116      26.7571      0.00000
    117      26.9029      0.00000
    118      27.7258      0.00000
    119      27.8687      0.00000
    120      28.6788      0.00000
    121      28.7190      0.00000
    122      28.7471      0.00000
    123      29.2712      0.00000
    124      30.2336      0.00000
    125      30.5005      0.00000
    126      30.6936      0.00000
    127      30.9076      0.00000
    128      31.6144      0.00000


--------------------------------------------------------------------------------------------------------


 soft charge-density along one line, spin component           1
         0         1         2         3         4         5         6         7         8         9
 total charge-density along one line
 
 soft charge-density along one line, spin component           2
         0         1         2         3         4         5         6         7         8         9
 total charge-density along one line
 
 pseudopotential strength for first ion, spin component:           1
-42.310  -0.000   0.000   6.499   0.000  -0.000  -0.000  -0.000
 -0.000 -42.348   0.000   0.000   6.514  -0.000   0.000   0.000
  0.000   0.000 -42.285  -0.000  -0.000   6.488   0.000   0.000
  6.499   0.000  -0.000   5.926   0.000  -0.000   0.000   0.000
  0.000   6.514  -0.000   0.000   5.921  -0.000  -0.000  -0.000
 -0.000  -0.000   6.488  -0.000  -0.000   5.927  -0.000  -0.000
 -0.000   0.000   0.000   0.000  -0.000  -0.000   0.045   0.000
 -0.000   0.000   0.000   0.000  -0.000  -0.000   0.000   0.050
 -0.000  -0.001   0.000   0.000   0.001  -0.000  -0.000  -0.000
  0.000  -0.000  -0.009  -0.000   0.000   0.006  -0.000   0.000
 -0.000  -0.004  -0.000   0.000   0.003   0.000   0.000   0.000
 -0.000   0.000   0.000   0.000  -0.000  -0.000  -0.503   0.000
 -0.000   0.000   0.000   0.000  -0.000  -0.000   0.000  -0.498
 -0.000  -0.001   0.000   0.000   0.001  -0.000  -0.000  -0.000
  0.000  -0.000  -0.008  -0.000   0.000   0.006  -0.000   0.000
 -0.000  -0.004  -0.000   0.000   0.003   0.000   0.000   0.000
 -0.000   0.003   0.000  -0.000   0.001   0.000  -0.000   0.000
 -0.000   0.007   0.000  -0.000   0.003   0.000  -0.000   0.000
 pseudopotential strength for first ion, spin component:           2
-44.192  -0.000   0.000   7.294   0.000  -0.000   0.000   0.004
 -0.000 -44.267   0.000   0.000   7.323  -0.000  -0.000   0.000
  0.000   0.000 -44.114  -0.000  -0.000   7.261   0.000  -0.000
  7.294   0.000  -0.000   5.705   0.000  -0.000  -0.000  -0.003
  0.000   7.323  -0.000   0.000   5.698  -0.000   0.000  -0.000
 -0.000  -0.000   7.261  -0.000  -0.000   5.710  -0.000   0.000
  0.000  -0.000   0.000  -0.000   0.000  -0.000  -1.390   0.000
  0.004   0.000  -0.000  -0.003  -0.000   0.000   0.000  -1.553
 -0.000   0.013   0.000   0.000  -0.006   0.000  -0.000  -0.000
 -0.000  -0.000   0.022   0.000   0.000  -0.010  -0.000   0.000
 -0.000   0.009  -0.000   0.000  -0.004  -0.000   0.000   0.000
 -0.000  -0.000   0.000  -0.000   0.000  -0.000  -1.914   0.000
  0.004   0.000  -0.000  -0.003  -0.000   0.000   0.000  -2.075
 -0.000   0.012   0.000   0.000  -0.006  -0.000  -0.000  -0.000
 -0.000  -0.000   0.021   0.000   0.000  -0.010  -0.000   0.000
 -0.000   0.008  -0.000   0.000  -0.004  -0.000   0.000   0.000
 -0.000  -0.005  -0.000  -0.000   0.003  -0.000  -0.000   0.000
 -0.000  -0.012   0.000  -0.000   0.008  -0.000  -0.000   0.000
 total augmentation occupancy for first ion, spin component:           1
  1.992   0.000   0.000  -0.026   0.000   0.000   0.000  -0.005   0.000   0.000   0.000   0.000   0.006   0.000   0.000   0.000
  0.000   1.992   0.000   0.000  -0.026  -0.000  -0.000   0.000  -0.004   0.000   0.002   0.000   0.000   0.004   0.000  -0.002
  0.000   0.000   1.992   0.000   0.000  -0.026   0.000   0.000   0.000  -0.001   0.000   0.000   0.000   0.000   0.002   0.000
 -0.026   0.000   0.000   0.206  -0.000   0.000   0.000  -0.014  -0.000  -0.000   0.000   0.000   0.019   0.000   0.000   0.000
  0.000  -0.026   0.000  -0.000   0.206   0.000  -0.000   0.000  -0.008   0.000   0.014   0.000   0.000   0.003   0.000  -0.023
  0.000  -0.000  -0.026   0.000   0.000   0.184  -0.000   0.000   0.000   0.009   0.000   0.000   0.000   0.000  -0.025   0.000
  0.000  -0.000   0.000   0.000  -0.000  -0.000   2.588   0.000   0.000   0.000   0.000  -1.494  -0.000  -0.000   0.000   0.000
 -0.005   0.000   0.000  -0.014   0.000   0.000   0.000   2.896   0.000   0.000   0.000   0.000  -2.138  -0.000   0.000   0.000
  0.000  -0.004   0.000  -0.000  -0.008   0.000   0.000   0.000   3.234   0.000   0.230  -0.000   0.000  -1.944   0.000  -0.116
  0.000   0.000  -0.001  -0.000   0.000   0.009   0.000   0.000   0.000   2.500   0.000   0.000   0.000   0.000  -1.439  -0.000
  0.000   0.002   0.000   0.000   0.014   0.000   0.000   0.000   0.230   0.000   2.985   0.000  -0.000  -0.119   0.000  -1.806
  0.000   0.000   0.000   0.000   0.000   0.000  -1.494   0.000  -0.000   0.000   0.000   1.819   0.000   0.000   0.000   0.000
  0.006   0.000   0.000   0.019   0.000   0.000  -0.000  -2.138   0.000   0.000  -0.000   0.000   2.619  -0.000   0.000   0.000
  0.000   0.004   0.000   0.000   0.003   0.000  -0.000  -0.000  -1.944   0.000  -0.119   0.000  -0.000   1.977   0.000   0.041
  0.000   0.000   0.002   0.000   0.000  -0.025   0.000   0.000   0.000  -1.439   0.000   0.000   0.000   0.000   1.763   0.000
  0.000  -0.002   0.000   0.000  -0.023   0.000   0.000   0.000  -0.116  -0.000  -1.806   0.000   0.000   0.041   0.000   1.925
  0.000  -0.001  -0.000   0.000   0.001  -0.000   0.000   0.000  -0.120   0.000   0.198   0.000   0.000   0.085   0.000  -0.156
  0.000   0.001   0.000   0.000  -0.000   0.000   0.000  -0.000   0.013   0.000  -0.012   0.000   0.000  -0.007   0.000   0.009
 total augmentation occupancy for first ion, spin component:           2
  0.002   0.000   0.000   0.007   0.000   0.000   0.000   0.003   0.000   0.000   0.000   0.000  -0.002   0.000   0.000   0.000
  0.000   0.002   0.000   0.000   0.007  -0.000   0.000   0.000   0.005   0.000   0.004   0.000   0.000  -0.006   0.000  -0.005
  0.000   0.000   0.002   0.000  -0.000   0.008   0.000   0.000   0.000   0.011   0.000  -0.000   0.000   0.000  -0.012  -0.000
  0.007   0.000   0.000  -0.007   0.000   0.000   0.000   0.017   0.000   0.000   0.000   0.000  -0.016   0.000   0.000   0.000
  0.000   0.007  -0.000   0.000  -0.001  -0.000  -0.000   0.000  -0.011   0.000  -0.040   0.000   0.000  -0.005   0.000   0.017
  0.000  -0.000   0.008   0.000  -0.000  -0.004  -0.000   0.000   0.000  -0.070   0.000   0.000   0.000   0.000   0.019   0.000
  0.000   0.000   0.000   0.000  -0.000  -0.000  -1.770  -0.000   0.000   0.000   0.000   0.772  -0.000   0.000   0.000  -0.000
  0.003   0.000   0.000   0.017   0.000   0.000  -0.000  -1.773  -0.000   0.000  -0.000  -0.000   0.567   0.000   0.000   0.000
  0.000   0.005   0.000   0.000  -0.011   0.000   0.000  -0.000  -2.299   0.000  -0.047  -0.000   0.000   0.986   0.000   0.061
  0.000   0.000   0.011   0.000   0.000  -0.070   0.000   0.000   0.000  -1.595   0.000  -0.000   0.000   0.000   0.544   0.000
  0.000   0.004   0.000   0.000  -0.040   0.000   0.000  -0.000  -0.047   0.000  -2.134   0.000   0.000   0.060   0.000   0.800
  0.000   0.000  -0.000   0.000   0.000   0.000   0.772  -0.000  -0.000  -0.000   0.000  -0.163   0.000   0.000   0.000   0.000
 -0.002   0.000   0.000  -0.016   0.000   0.000  -0.000   0.567   0.000   0.000   0.000   0.000   0.094   0.000   0.000   0.000
  0.000  -0.006   0.000   0.000  -0.005   0.000   0.000   0.000   0.986   0.000   0.060   0.000   0.000  -0.292   0.000  -0.067
  0.000   0.000  -0.012   0.000   0.000   0.019   0.000   0.000   0.000   0.544   0.000   0.000   0.000   0.000   0.054   0.000
  0.000  -0.005  -0.000   0.000   0.017   0.000  -0.000   0.000   0.061   0.000   0.800   0.000   0.000  -0.067   0.000  -0.094
  0.000  -0.002   0.000   0.000  -0.017   0.000   0.000   0.000  -0.014  -0.000  -0.033   0.000   0.000  -0.005   0.000   0.029
  0.000   0.000  -0.000   0.000  -0.000  -0.000   0.000   0.000  -0.007   0.000   0.003   0.000   0.000   0.002   0.000  -0.000


------------------------ aborting loop because EDIFF is reached ----------------------------------------





 total charge

# of ion       s       p       d       tot
------------------------------------------
    1        0.371   6.373   6.086  12.830
    2        0.366   6.364   6.088  12.818
    3        0.368   6.367   6.069  12.805
    4        0.374   6.375   6.071  12.820
    5        0.372   6.373   6.064  12.810
    6        0.367   6.368   6.071  12.807
    7        0.371   6.373   6.086  12.830
    8        0.366   6.364   6.088  12.818
    9        0.368   6.367   6.069  12.805
   10        0.809   0.787   8.056   9.651
   11        0.810   0.777   8.063   9.650
   12        0.796   0.790   8.059   9.644
--------------------------------------------------
tot          5.738  59.679  78.869 144.286



 magnetization (x)

# of ion       s       p       d       tot
------------------------------------------
    1       -0.011  -0.006  -2.204  -2.221
    2        0.001  -0.012   2.460   2.449
    3        0.008   0.003   2.352   2.362
    4       -0.016  -0.022  -2.275  -2.312
    5        0.014   0.021   2.326   2.362
    6        0.000  -0.014   2.548   2.534
    7       -0.011  -0.006  -2.204  -2.221
    8        0.001  -0.012   2.460   2.449
    9        0.008   0.003   2.352   2.362
   10        0.007   0.011  -0.061  -0.043
   11       -0.009  -0.019   0.100   0.072
   12       -0.037  -0.095   0.375   0.243
--------------------------------------------------
tot         -0.046  -0.148   8.230   8.036
 
    CHARGE:  cpu time      0.1481: real time      0.1489
    FORLOC:  cpu time      0.0020: real time      0.0023
    FORNL :  cpu time      0.6803: real time      0.6844
    STRESS:  cpu time      4.0815: real time      4.1139
    FORCOR:  cpu time      0.0211: real time      0.0214
    FORHAR:  cpu time      0.0030: real time      0.0030
    MIXING:  cpu time      0.0032: real time      0.0032
    OFIELD:  cpu time      0.0016: real time      0.0019

  FORCE on cell =-STRESS in cart. coord.  units (eV):
  Direction    XX          YY          ZZ          XY          YZ          ZX
  --------------------------------------------------------------------------------------
  Alpha Z  1173.72503  1173.72503  1173.72503
  Ewald   -6173.27375 -6173.27375 -6189.74591     0.00000    -0.00000     0.00000
  Hartree  1814.71256  1814.71256  1799.49351    -0.00000    -0.00000    -0.00000
  E(xc)    -945.44309  -945.44309  -945.39596     0.00000     0.00000     0.00000
  Local    1199.42406  1199.42406  1236.22367    -0.00000    -0.00000    -0.00000
  n-local  -201.00368  -214.33407  -207.41198    15.58212     0.14351     0.24429
  augment  1437.72399  1437.72399  1434.05052     0.00000    -0.00000    -0.00000
  Kinetic  1720.16932  1700.86537  1708.63283     4.03941     0.08279     0.11024
  Fock        0.00000     0.00000     0.00000     0.00000     0.00000     0.00000
  -------------------------------------------------------------------------------------
  Total       9.71728     9.71728     9.57172     0.00000     0.00000     0.00000
  in kB     107.37103   107.37103   105.76276     0.00000     0.00000     0.00000
  external pressure =      106.83 kB  Pullay stress =        0.00 kB


 VOLUME and BASIS-vectors are now :
 -----------------------------------------------------------------------------
  energy-cutoff  :      520.00
  volume of cell :      145.00
      direct lattice vectors                 reciprocal lattice vectors
     3.630898386  0.000000000  0.000000000     0.275413932  0.000000000  0.000000000
     0.000000000  3.630898386  0.000000000     0.000000000  0.275413932  0.000000000
     0.000000000  0.000000000 10.998660894     0.000000000  0.000000000  0.090920159

  length of vectors
     3.630898386  3.630898386 10.998660894     0.275413932  0.275413932  0.090920159


 FORCES acting on ions
    electron-ion (+dipol)            ewald-force                    non-local-force                 convergence-correction
 -----------------------------------------------------------------------------------------------
   -.686E-13 0.116E-11 -.460E+01   -.264E-13 -.731E-14 0.368E+01   0.744E-18 -.385E-19 0.865E+00   0.738E-14 -.257E-13 0.561E-01
   -.668E-13 0.179E-11 -.263E+02   -.266E-14 -.268E-13 0.268E+02   -.107E-18 0.328E-18 -.400E+00   -.841E-14 -.339E-13 -.737E-01
   -.595E-13 0.690E-12 0.258E+02   -.730E-14 -.777E-14 -.270E+02   -.489E-18 0.308E-17 0.120E+01   0.127E-13 -.270E-13 0.168E-01
   0.105E-11 -.445E-11 0.596E+02   -.175E-14 0.454E-13 -.575E+02   -.248E-18 0.252E-18 -.213E+01   -.136E-12 -.643E-13 0.734E-01
   0.105E-11 0.737E-11 0.168E+01   0.886E-14 0.163E-13 -.243E-01   0.133E-18 -.466E-18 -.165E+01   -.159E-12 -.724E-13 -.204E-01
   0.106E-11 -.444E-11 -.341E+02   -.102E-13 0.481E-13 0.343E+02   -.376E-19 0.971E-19 -.113E+00   -.183E-12 -.836E-13 -.516E-01
   0.106E-11 -.210E-12 -.460E+01   -.667E-14 0.126E-13 0.368E+01   -.261E-18 -.183E-18 0.865E+00   -.119E-12 -.222E-13 0.561E-01
   0.104E-11 0.176E-13 -.263E+02   -.264E-13 -.121E-13 0.268E+02   -.754E-18 0.311E-18 -.400E+00   -.129E-12 -.310E-13 -.737E-01
   0.104E-11 -.626E-13 0.258E+02   0.473E-14 0.172E-13 -.270E+02   0.102E-17 0.921E-18 0.120E+01   -.118E-12 -.209E-13 0.168E-01
   -.548E-13 -.298E-13 0.180E+02   -.153E-13 -.480E-13 -.182E+02   0.276E-18 -.586E-18 0.163E+00   0.322E-13 -.592E-14 0.510E-01
   -.544E-13 -.823E-13 -.223E+02   0.321E-13 0.267E-13 0.223E+02   0.322E-18 -.166E-19 -.484E-01   0.284E-13 -.760E-14 -.141E-01
   -.564E-13 0.525E-13 -.124E+02   0.296E-13 0.715E-14 0.123E+02   -.126E-18 0.959E-19 0.168E+00   0.325E-13 -.122E-13 -.351E-01
 -----------------------------------------------------------------------------------------------
   0.594E-11 0.180E-11 0.270E+00   -.214E-13 0.716E-13 0.142E-12   0.476E-18 0.379E-17 -.271E+00   -.739E-12 -.407E-12 0.148E-02
 
 
 POSITION                                       TOTAL-FORCE (eV/Angst)
 -----------------------------------------------------------------------------------
      0.00000      1.81545      1.83145         0.000000      0.000000     -0.001666
      0.00000      1.81545      5.49033         0.000000     -0.000000      0.012773
      0.00000      1.81545      9.17768         0.000000     -0.000000     -0.006449
      1.81545      1.81545      0.04244         0.000000      0.000000      0.031689
      1.81545      1.81545      3.68540        -0.000000      0.000000     -0.011332
      1.81545      1.81545      7.31235        -0.000000      0.000000     -0.007309
      1.81545      0.00000      1.83145         0.000000     -0.000000     -0.001666
      1.81545      0.00000      5.49033         0.000000     -0.000000      0.012773
      1.81545      0.00000      9.17768         0.000000     -0.000000     -0.006449
      0.00000      0.00000     10.98657         0.000000     -0.000000     -0.011746
      0.00000      0.00000      3.63131         0.000000     -0.000000     -0.013603
      0.00000      0.00000      7.33499         0.000000     -0.000000      0.002983
 -----------------------------------------------------------------------------------
    total drift:                                0.000000      0.000000      0.000051


--------------------------------------------------------------------------------------------------------



  FREE ENERGIE OF THE ION-ELECTRON SYSTEM (eV)
  ---------------------------------------------------
  free  energy   TOTEN  =       -93.08106035 eV

  energy  without entropy=      -93.08106035  energy(sigma->0) =      -93.08106035
 


--------------------------------------------------------------------------------------------------------


    POTLOK:  cpu time      0.0367: real time      0.0369


--------------------------------------------------------------------------------------------------------


     LOOP+:  cpu time    227.2431: real time    229.1452
 -----------------------------------------------------------------------------
|                                                                             |
|           W    W    AA    RRRRR   N    N  II  N    N   GGGG   !!!           |
|           W    W   A  A   R    R  NN   N  II  NN   N  G    G  !!!           |
|           W    W  A    A  R    R  N N  N  II  N N  N  G       !!!           |
|           W WW W  AAAAAA  RRRRR   N  N N  II  N  N N  G  GGG   !            |
|           WW  WW  A    A  R   R   N   NN  II  N   NN  G    G                |
|           W    W  A    A  R    R  N    N  II  N    N   GGGG   !!!           |
|                                                                             |
|     Tetrahedron method does not include variations of the Fermi             |
|     occupations, so forces and stress will be inaccurate. We suggest        |
|     using a different smearing scheme ISMEAR = 1 or 2 for metals in         |
|     relaxations.                                                            |
|                                                                             |
 -----------------------------------------------------------------------------

    4ORBIT:  cpu time      0.0000: real time      0.0000



 total charge

# of ion       s       p       d       tot
------------------------------------------
    1        0.371   6.373   6.086  12.830
    2        0.366   6.364   6.088  12.818
    3        0.368   6.367   6.069  12.805
    4        0.374   6.375   6.071  12.820
    5        0.372   6.373   6.064  12.810
    6        0.367   6.368   6.071  12.807
    7        0.371   6.373   6.086  12.830
    8        0.366   6.364   6.088  12.818
    9        0.368   6.367   6.069  12.805
   10        0.809   0.787   8.056   9.651
   11        0.810   0.777   8.063   9.650
   12        0.796   0.790   8.059   9.644
--------------------------------------------------
tot          5.738  59.679  78.869 144.286



 magnetization (x)

# of ion       s       p       d       tot
------------------------------------------
    1       -0.011  -0.006  -2.204  -2.221
    2        0.001  -0.012   2.460   2.449
    3        0.008   0.003   2.352   2.362
    4       -0.016  -0.022  -2.275  -2.312
    5        0.014   0.021   2.326   2.362
    6        0.000  -0.014   2.548   2.534
    7       -0.011  -0.006  -2.204  -2.221
    8        0.001  -0.012   2.460   2.449
    9        0.008   0.003   2.352   2.362
   10        0.007   0.011  -0.061  -0.043
   11       -0.009  -0.019   0.100   0.072
   12       -0.037  -0.095   0.375   0.243
--------------------------------------------------
tot         -0.046  -0.148   8.230   8.036
 
 BZINTS: Fermi energy:   10.840184;  156.000000 electrons
         Band energy:-0.148851E+04;  BLOECHL correction:   -0.022456

 total amount of memory used by VASP MPI-rank0   179901. kBytes
=======================================================================

   base      :      30000. kBytes
   nonl-proj :      96755. kBytes
   fftplans  :        888. kBytes
   grid      :       6813. kBytes
   one-center:        373. kBytes
   wavefun   :      45072. kBytes
 
  
  
 General timing and accounting informations for this job:
 ========================================================
  
                  Total CPU time used (sec):      245.656
                            User time (sec):      237.380
                          System time (sec):        8.276
                         Elapsed time (sec):      253.699
  
                   Maximum memory used (kb):      842060.
                   Average memory used (kb):          N/A
  
                          Minor page faults:       211576
                          Major page faults:          161
                 Voluntary context switches:         9157
