       N       E                     dE             d eps       ncg     rms          rms(c)
DAV:   1     0.177203387816E+04    0.17720E+04   -0.84797E+04 43008   0.179E+03
DAV:   2     0.590096550434E+01   -0.17661E+04   -0.16769E+04 43008   0.481E+02
DAV:   3    -0.103434347418E+03   -0.10934E+03   -0.10795E+03 50304   0.129E+02
DAV:   4    -0.105032974432E+03   -0.15986E+01   -0.15983E+01 45888   0.156E+01
DAV:   5    -0.105064295192E+03   -0.31321E-01   -0.31320E-01 52896   0.211E+00    0.381E+01
DAV:   6    -0.114532964170E+03   -0.94687E+01   -0.18051E+02 51936   0.676E+01    0.707E+01
DAV:   7    -0.111111613801E+03    0.34214E+01   -0.45291E+02 52960   0.575E+01    0.619E+01
DAV:   8    -0.976955330352E+02    0.13416E+02   -0.12916E+02 51648   0.451E+01    0.344E+01
DAV:   9    -0.104633893261E+03   -0.69384E+01   -0.18244E+02 51744   0.364E+01    0.558E+01
DAV:  10    -0.969152092123E+02    0.77187E+01   -0.12346E+02 52448   0.248E+01    0.348E+01
DAV:  11    -0.916994451988E+02    0.52158E+01   -0.27971E+01 51936   0.186E+01    0.134E+01
DAV:  12    -0.924914449044E+02   -0.79200E+00   -0.36109E+00 51200   0.748E+00    0.108E+01
DAV:  13    -0.925867951876E+02   -0.95350E-01   -0.18118E+00 50816   0.505E+00    0.102E+01
DAV:  14    -0.928452826577E+02   -0.25849E+00   -0.99395E-01 52480   0.394E+00    0.958E+00
DAV:  15    -0.931841474732E+02   -0.33886E+00   -0.15144E+00 52992   0.534E+00    0.930E+00
DAV:  16    -0.932066625365E+02   -0.22515E-01   -0.29216E+00 51392   0.670E+00    0.637E+00
DAV:  17    -0.932713204007E+02   -0.64658E-01   -0.80271E-01 51168   0.352E+00    0.443E+00
DAV:  18    -0.933291326869E+02   -0.57812E-01   -0.13083E-01 51296   0.143E+00    0.387E+00
DAV:  19    -0.933256220749E+02    0.35106E-02   -0.10781E-01 51232   0.179E+00    0.217E+00
DAV:  20    -0.933210263211E+02    0.45958E-02   -0.79547E-02 53440   0.120E+00    0.114E+00
DAV:  21    -0.933255667368E+02   -0.45404E-02   -0.17309E-02 51936   0.485E-01    0.760E-01
DAV:  22    -0.933283929149E+02   -0.28262E-02   -0.52193E-03 52448   0.366E-01    0.476E-01
DAV:  23    -0.933290730118E+02   -0.68010E-03   -0.20043E-03 51840   0.254E-01    0.238E-01
DAV:  24    -0.933293547621E+02   -0.28175E-03   -0.97246E-04 53024   0.164E-01    0.115E-01
DAV:  25    -0.933293532407E+02    0.15214E-05   -0.23907E-04 50464   0.664E-02    0.620E-02
DAV:  26    -0.933293535495E+02   -0.30875E-06   -0.10257E-04 51552   0.337E-02    0.313E-02
DAV:  27    -0.933293583782E+02   -0.48287E-05   -0.30882E-05 52768   0.186E-02    0.318E-02
DAV:  28    -0.933293509036E+02    0.74746E-05   -0.60416E-06 50720   0.149E-02    0.229E-02
DAV:  29    -0.933293430125E+02    0.78911E-05   -0.10011E-05 37888   0.135E-02    0.882E-03
DAV:  30    -0.933293417913E+02    0.12212E-05   -0.10644E-06 26176   0.392E-03    0.624E-03
DAV:  31    -0.933293406898E+02    0.11015E-05   -0.45636E-07 25408   0.356E-03    0.278E-03
DAV:  32    -0.933293402523E+02    0.43749E-06   -0.20453E-07 24960   0.163E-03
   1 F= -.93329340E+02 E0= -.93329340E+02  d E =0.000000E+00  mag=     8.3734
