       N       E                     dE             d eps       ncg     rms          ort
DAV:   1     0.177204112096E+04    0.17720E+04   -0.91673E+04 10752   0.198E+03
DAV:   2     0.589841478323E+01   -0.17661E+04   -0.16769E+04 10752   0.481E+02
DAV:   3    -0.103433232630E+03   -0.10933E+03   -0.10793E+03 10752   0.129E+02
DAV:   4    -0.105031881837E+03   -0.15986E+01   -0.15983E+01 10752   0.156E+01
DAV:   5    -0.105063203474E+03   -0.31322E-01   -0.31321E-01 10752   0.211E+00
SDA:   6    -0.481608360055E+02    0.56902E+02   -0.31321E-01 10752   0.587E+03 0.000E+00
CGA:   7    -0.641113399541E+02   -0.15951E+02   -0.12293E+02 10752   0.192E+03 0.159E+03
CGA:   8    -0.811092150395E+02   -0.16998E+02   -0.15973E+02 10752   0.269E+03 0.120E+02
CGA:   9    -0.868729632650E+02   -0.57637E+01   -0.61375E+01 10752   0.403E+02-0.942E+01
CGA:  10    -0.883316926673E+02   -0.14587E+01   -0.16511E+01 10752   0.424E+02-0.340E+01
CGA:  11    -0.895479463315E+02   -0.12163E+01   -0.11100E+01 10752   0.203E+02 0.399E+01
CGA:  12    -0.906474641801E+02   -0.10995E+01   -0.10515E+01 10752   0.353E+02 0.868E+00
CGA:  13    -0.919449629957E+02   -0.12975E+01   -0.10273E+01 10752   0.130E+02 0.978E+01
CGA:  14    -0.922473635759E+02   -0.30240E+00   -0.30605E+00 10752   0.282E+01-0.163E+00
CGA:  15    -0.926934711050E+02   -0.44611E+00   -0.44601E+00 10752   0.809E+01 0.758E-02
CGA:  16    -0.929476899954E+02   -0.25422E+00   -0.28384E+00 10752   0.419E+01-0.795E+00
CGA:  17    -0.931482298962E+02   -0.20054E+00   -0.20434E+00 10752   0.797E+00-0.493E-01
CGA:  18    -0.931753175488E+02   -0.27088E-01   -0.27563E-01 10752   0.685E+00-0.112E-01
CGA:  19    -0.932363194780E+02   -0.61002E-01   -0.61233E-01 10752   0.497E+00-0.236E-03
CGA:  20    -0.932655350706E+02   -0.29216E-01   -0.29450E-01 10752   0.449E+00-0.303E-02
CGA:  21    -0.932789394379E+02   -0.13404E-01   -0.13925E-01 10752   0.908E-01-0.150E-01
CGA:  22    -0.932958855595E+02   -0.16946E-01   -0.16891E-01 10752   0.179E+00 0.636E-03
CGA:  23    -0.933015278137E+02   -0.56423E-02   -0.57847E-02 10752   0.761E-01-0.387E-02
CGA:  24    -0.933089071915E+02   -0.73794E-02   -0.73960E-02 10752   0.576E-01 0.261E-03
CGA:  25    -0.933163307051E+02   -0.74235E-02   -0.74201E-02 10752   0.453E-01 0.229E-03
CGA:  26    -0.933179605434E+02   -0.16298E-02   -0.16470E-02 10752   0.302E-01-0.368E-03
CGA:  27    -0.933225549601E+02   -0.45944E-02   -0.45965E-02 10752   0.278E-01-0.611E-04
CGA:  28    -0.933248058019E+02   -0.22508E-02   -0.22491E-02 10752   0.698E-02-0.606E-04
CGA:  29    -0.933251069636E+02   -0.30116E-03   -0.30153E-03 10752   0.641E-02-0.208E-04
CGA:  30    -0.933259764766E+02   -0.86951E-03   -0.87006E-03 10752   0.522E-02-0.184E-04
CGA:  31    -0.933263919863E+02   -0.41551E-03   -0.41522E-03 10752   0.306E-02-0.715E-05
CGA:  32    -0.933265012612E+02   -0.10927E-03   -0.10898E-03 10752   0.160E-02-0.807E-06
CGA:  33    -0.933267476167E+02   -0.24636E-03   -0.24696E-03 10752   0.804E-03-0.115E-04
CGA:  34    -0.933268616528E+02   -0.11404E-03   -0.11401E-03 10752   0.162E-02 0.146E-05
CGA:  35    -0.933269388151E+02   -0.77162E-04   -0.77297E-04 10752   0.996E-03 0.416E-05
CGA:  36    -0.933270027224E+02   -0.63907E-04   -0.64133E-04 10752   0.161E-03 0.671E-05
SDA:  37    -0.933270211825E+02   -0.18460E-04   -0.18416E-04 10752   0.436E-03 0.643E-05
CGA:  38    -0.933270316319E+02   -0.10449E-04   -0.10438E-04 10752   0.942E-04 0.162E-05
CGA:  39    -0.933270470559E+02   -0.15424E-04   -0.15368E-04 10752   0.127E-03 0.165E-05
CGA:  40    -0.933270632004E+02   -0.16144E-04   -0.16132E-04 10752   0.111E-03 0.140E-05
CGA:  41    -0.933270670335E+02   -0.38331E-05   -0.38133E-05 10752   0.445E-04 0.360E-06
CGA:  42    -0.933270722313E+02   -0.51978E-05   -0.52404E-05 10752   0.366E-04-0.230E-05
CGA:  43    -0.933270763864E+02   -0.41551E-05   -0.42372E-05 10752   0.270E-04-0.376E-05
CGA:  44    -0.933270780441E+02   -0.16577E-05   -0.15746E-05 10752   0.490E-04-0.163E-05
CGA:  45    -0.933270831332E+02   -0.50891E-05   -0.51564E-05 10752   0.100E-04-0.636E-05
CGA:  46    -0.933270837401E+02   -0.60691E-06   -0.61057E-06 10752   0.122E-04 0.562E-06
   1 F= -.93327084E+02 E0= -.93330276E+02  d E =-.933271E+02  mag=     8.4329
