       N       E                     dE             d eps       ncg     rms          ort
DAV:   1     0.176991469668E+04    0.17699E+04   -0.91603E+04 10752   0.198E+03
DAV:   2     0.559092490279E+01   -0.17643E+04   -0.16751E+04 10752   0.481E+02
DAV:   3    -0.103396222157E+03   -0.10899E+03   -0.10759E+03 10752   0.128E+02
DAV:   4    -0.104989006724E+03   -0.15928E+01   -0.15925E+01 10752   0.155E+01
DAV:   5    -0.105020226592E+03   -0.31220E-01   -0.31219E-01 10752   0.211E+00
SDA:   6    -0.480608019049E+02    0.56959E+02   -0.31219E-01 10752   0.601E+03 0.000E+00
CGA:   7    -0.642043224685E+02   -0.16144E+02   -0.12384E+02 10752   0.189E+03 0.165E+03
CGA:   8    -0.804905115350E+02   -0.16286E+02   -0.15256E+02 10752   0.288E+03 0.125E+02
CGA:   9    -0.868552254547E+02   -0.63647E+01   -0.67720E+01 10752   0.429E+02-0.976E+01
CGA:  10    -0.882020983060E+02   -0.13469E+01   -0.15618E+01 10752   0.441E+02-0.444E+01
CGA:  11    -0.895129195414E+02   -0.13108E+01   -0.11932E+01 10752   0.218E+02 0.416E+01
CGA:  12    -0.904761726882E+02   -0.96325E+00   -0.90420E+00 10752   0.303E+02 0.145E+01
CGA:  13    -0.919893141501E+02   -0.15131E+01   -0.13696E+01 10752   0.142E+02 0.343E+01
CGA:  14    -0.922784587973E+02   -0.28914E+00   -0.28729E+00 10752   0.294E+01 0.168E+00
CGA:  15    -0.925726554106E+02   -0.29420E+00   -0.29666E+00 10752   0.941E+01 0.426E-02
CGA:  16    -0.929033559865E+02   -0.33070E+00   -0.35018E+00 10752   0.424E+01-0.482E+00
CGA:  17    -0.930971135593E+02   -0.19376E+00   -0.19697E+00 10752   0.334E+01-0.526E-01
CGA:  18    -0.931744477294E+02   -0.77334E-01   -0.79218E-01 10752   0.480E+00-0.711E-01
CGA:  19    -0.932054980672E+02   -0.31050E-01   -0.31094E-01 10752   0.104E+01-0.434E-03
CGA:  20    -0.932550472886E+02   -0.49549E-01   -0.51011E-01 10752   0.410E+00-0.207E-01
CGA:  21    -0.932742871120E+02   -0.19240E-01   -0.19275E-01 10752   0.360E+00-0.881E-03
CGA:  22    -0.932855667298E+02   -0.11280E-01   -0.11677E-01 10752   0.907E-01-0.103E-01
CGA:  23    -0.932950182077E+02   -0.94515E-02   -0.94556E-02 10752   0.251E+00 0.403E-03
CGA:  24    -0.933043703282E+02   -0.93521E-02   -0.94562E-02 10752   0.528E-01-0.207E-02
CGA:  25    -0.933093006047E+02   -0.49303E-02   -0.49359E-02 10752   0.984E-01 0.152E-03
CGA:  26    -0.933134559090E+02   -0.41553E-02   -0.42484E-02 10752   0.594E-01-0.144E-02
CGA:  27    -0.933185176280E+02   -0.50617E-02   -0.50718E-02 10752   0.266E-01 0.167E-03
CGA:  28    -0.933196756922E+02   -0.11581E-02   -0.11588E-02 10752   0.299E-01-0.384E-04
CGA:  29    -0.933237811827E+02   -0.41055E-02   -0.41058E-02 10752   0.193E-01-0.314E-04
CGA:  30    -0.933245445007E+02   -0.76332E-03   -0.76812E-03 10752   0.110E-01-0.127E-03
CGA:  31    -0.933250198200E+02   -0.47532E-03   -0.47399E-03 10752   0.330E-02-0.621E-05
CGA:  32    -0.933256042125E+02   -0.58439E-03   -0.58636E-03 10752   0.108E-01-0.227E-04
CGA:  33    -0.933259752201E+02   -0.37101E-03   -0.37190E-03 10752   0.249E-02-0.423E-04
CGA:  34    -0.933261353083E+02   -0.16009E-03   -0.15985E-03 10752   0.108E-02-0.212E-05
CGA:  35    -0.933261953816E+02   -0.60073E-04   -0.60016E-04 10752   0.175E-02 0.111E-05
CGA:  36    -0.933264088468E+02   -0.21347E-03   -0.21331E-03 10752   0.728E-03 0.459E-05
SDA:  37    -0.933264394475E+02   -0.30601E-04   -0.30582E-04 10752   0.693E-03 0.146E-05
CGA:  38    -0.933264626145E+02   -0.23167E-04   -0.23195E-04 10752   0.391E-03 0.226E-05
CGA:  39    -0.933265091753E+02   -0.46561E-04   -0.46480E-04 10752   0.130E-03 0.405E-05
CGA:  40    -0.933265251518E+02   -0.15977E-04   -0.15849E-04 10752   0.238E-03 0.564E-05
CGA:  41    -0.933265391529E+02   -0.14001E-04   -0.14159E-04 10752   0.237E-03 0.572E-05
CGA:  42    -0.933265560507E+02   -0.16898E-04   -0.17000E-04 10752   0.343E-04 0.575E-05
CGA:  43    -0.933265648707E+02   -0.88200E-05   -0.11345E-04 10752   0.234E-03-0.995E-05
CGA:  44    -0.933265698899E+02   -0.50193E-05   -0.45789E-05 10752   0.859E-04-0.524E-05
CGA:  45    -0.933265725990E+02   -0.27091E-05   -0.25683E-05 10752   0.727E-04-0.124E-05
CGA:  46    -0.933265754350E+02   -0.28360E-05   -0.27522E-05 10752   0.406E-04-0.654E-06
CGA:  47    -0.933265766407E+02   -0.12057E-05   -0.12056E-05 10752   0.365E-04 0.647E-06
CGA:  48    -0.933265790982E+02   -0.24575E-05   -0.24794E-05 10752   0.504E-04 0.165E-05
CGA:  49    -0.933265802392E+02   -0.11411E-05   -0.11702E-05 10752   0.795E-05 0.110E-05
CGA:  50    -0.933265805274E+02   -0.28817E-06   -0.28471E-06 10752   0.733E-05 0.537E-06
   1 F= -.93326581E+02 E0= -.93329761E+02  d E =-.933266E+02  mag=     8.4177
       N       E                     dE             d eps       ncg     rms          ort
SDA:   1    -0.933188390124E+02    0.77412E-02    0.00000E+00 10752   0.225E-01 0.000E+00
CGA:   2    -0.933215326024E+02   -0.26936E-02   -0.26939E-02 10752   0.590E-01-0.811E-05
CGA:   3    -0.933241447903E+02   -0.26122E-02   -0.26128E-02 10752   0.188E-01-0.614E-05
CGA:   4    -0.933255732303E+02   -0.14284E-02   -0.14285E-02 10752   0.533E-02 0.539E-05
CGA:   5    -0.933264620452E+02   -0.88881E-03   -0.88805E-03 10752   0.252E-02 0.890E-05
CGA:   6    -0.933266117836E+02   -0.14974E-03   -0.14975E-03 10752   0.165E-02 0.529E-06
CGA:   7    -0.933266745601E+02   -0.62777E-04   -0.62741E-04 10752   0.631E-03-0.685E-06
CGA:   8    -0.933267948737E+02   -0.12031E-03   -0.12066E-03 10752   0.162E-03-0.310E-05
CGA:   9    -0.933268109070E+02   -0.16033E-04   -0.16030E-04 10752   0.265E-03 0.190E-06
CGA:  10    -0.933268237548E+02   -0.12848E-04   -0.12863E-04 10752   0.184E-03 0.364E-06
CGA:  11    -0.933268362679E+02   -0.12513E-04   -0.12525E-04 10752   0.343E-04 0.754E-06
CGA:  12    -0.933268417036E+02   -0.54357E-05   -0.54489E-05 10752   0.519E-04-0.173E-06
CGA:  13    -0.933268433801E+02   -0.16765E-05   -0.16741E-05 10752   0.150E-04-0.370E-07
CGA:  14    -0.933268447589E+02   -0.13788E-05   -0.13827E-05 10752   0.771E-05-0.269E-06
CGA:  15    -0.933268459172E+02   -0.11584E-05   -0.12019E-05 10752   0.453E-05-0.578E-06
CGA:  16    -0.933268460778E+02   -0.16062E-06   -0.15799E-06 10752   0.285E-05-0.497E-07
   2 F= -.93326846E+02 E0= -.93330018E+02  d E =-.265550E-03  mag=     8.4129
       N       E                     dE             d eps       ncg     rms          ort
SDA:   1    -0.933216154820E+02    0.52304E-02    0.00000E+00 10752   0.193E-01 0.000E+00
CGA:   2    -0.933227762210E+02   -0.11607E-02   -0.11600E-02 10752   0.285E-01-0.245E-05
CGA:   3    -0.933248343517E+02   -0.20581E-02   -0.20583E-02 10752   0.158E-01 0.264E-05
CGA:   4    -0.933260698941E+02   -0.12355E-02   -0.12355E-02 10752   0.492E-02-0.850E-06
CGA:   5    -0.933263297984E+02   -0.25990E-03   -0.25994E-03 10752   0.548E-02 0.113E-05
CGA:   6    -0.933267311672E+02   -0.40137E-03   -0.40140E-03 10752   0.158E-02 0.333E-05
CGA:   7    -0.933268545868E+02   -0.12342E-03   -0.12342E-03 10752   0.336E-03 0.785E-06
CGA:   8    -0.933268906479E+02   -0.36061E-04   -0.36066E-04 10752   0.934E-03-0.196E-06
CGA:   9    -0.933269405768E+02   -0.49929E-04   -0.49922E-04 10752   0.917E-04-0.277E-06
CGA:  10    -0.933269495941E+02   -0.90173E-05   -0.90146E-05 10752   0.165E-03 0.147E-06
CGA:  11    -0.933269576760E+02   -0.80819E-05   -0.80873E-05 10752   0.930E-04 0.136E-06
CGA:  12    -0.933269644646E+02   -0.67886E-05   -0.67907E-05 10752   0.202E-04 0.375E-06
CGA:  13    -0.933269676150E+02   -0.31505E-05   -0.31727E-05 10752   0.256E-04-0.268E-06
CGA:  14    -0.933269684426E+02   -0.82759E-06   -0.82535E-06 10752   0.846E-05-0.288E-07
   3 F= -.93326968E+02 E0= -.93330130E+02  d E =-.387915E-03  mag=     8.4098
       N       E                     dE             d eps       ncg     rms          ort
SDA:   1    -0.933054478756E+02    0.21520E-01    0.00000E+00 10752   0.721E-01 0.000E+00
CGA:   2    -0.933117100787E+02   -0.62622E-02   -0.62636E-02 10752   0.120E+00-0.147E-03
CGA:   3    -0.933178691931E+02   -0.61591E-02   -0.61636E-02 10752   0.677E-01-0.165E-04
CGA:   4    -0.933234466863E+02   -0.55775E-02   -0.55775E-02 10752   0.181E-01-0.142E-06
CGA:   5    -0.933245745491E+02   -0.11279E-02   -0.11280E-02 10752   0.233E-01 0.393E-05
CGA:   6    -0.933258551497E+02   -0.12806E-02   -0.12809E-02 10752   0.809E-02 0.611E-05
CGA:   7    -0.933264824266E+02   -0.62728E-03   -0.62728E-03 10752   0.121E-02 0.148E-05
CGA:   8    -0.933267445897E+02   -0.26216E-03   -0.26235E-03 10752   0.301E-02-0.139E-05
CGA:   9    -0.933268286462E+02   -0.84057E-04   -0.84055E-04 10752   0.417E-03-0.989E-06
CGA:  10    -0.933268792700E+02   -0.50624E-04   -0.50588E-04 10752   0.407E-03 0.955E-06
CGA:  11    -0.933269135409E+02   -0.34271E-04   -0.34271E-04 10752   0.418E-03 0.736E-06
CGA:  12    -0.933269280612E+02   -0.14520E-04   -0.14537E-04 10752   0.984E-04 0.455E-06
CGA:  13    -0.933269429631E+02   -0.14902E-04   -0.14922E-04 10752   0.561E-04-0.251E-06
CGA:  14    -0.933269469854E+02   -0.40224E-05   -0.40224E-05 10752   0.483E-04-0.558E-07
CGA:  15    -0.933269487097E+02   -0.17243E-05   -0.17167E-05 10752   0.179E-04-0.133E-06
CGA:  16    -0.933269517591E+02   -0.30494E-05   -0.31097E-05 10752   0.761E-05-0.649E-06
CGA:  17    -0.933269520991E+02   -0.33997E-06   -0.33827E-06 10752   0.592E-05-0.166E-07
   4 F= -.93326952E+02 E0= -.93330089E+02  d E =-.371572E-03  mag=     8.4041
       N       E                     dE             d eps       ncg     rms          ort
SDA:   1    -0.933227672478E+02    0.41845E-02    0.00000E+00 10752   0.150E-01 0.000E+00
CGA:   2    -0.933236611957E+02   -0.89395E-03   -0.89417E-03 10752   0.222E-01-0.122E-05
CGA:   3    -0.933255339945E+02   -0.18728E-02   -0.18728E-02 10752   0.937E-02 0.403E-05
CGA:   4    -0.933263876769E+02   -0.85368E-03   -0.85375E-03 10752   0.255E-02-0.595E-05
CGA:   5    -0.933267728577E+02   -0.38518E-03   -0.38529E-03 10752   0.250E-02-0.154E-05
CGA:   6    -0.933268700536E+02   -0.97196E-04   -0.97159E-04 10752   0.109E-02-0.105E-05
CGA:   7    -0.933269205171E+02   -0.50463E-04   -0.50448E-04 10752   0.284E-03-0.519E-06
CGA:   8    -0.933269739975E+02   -0.53480E-04   -0.53376E-04 10752   0.539E-03 0.998E-06
CGA:   9    -0.933269885062E+02   -0.14509E-04   -0.14514E-04 10752   0.666E-04-0.103E-07
CGA:  10    -0.933270023017E+02   -0.13796E-04   -0.13876E-04 10752   0.547E-04-0.656E-06
CGA:  11    -0.933270065215E+02   -0.42198E-05   -0.42198E-05 10752   0.473E-04-0.180E-07
CGA:  12    -0.933270083763E+02   -0.18548E-05   -0.18607E-05 10752   0.225E-04 0.107E-06
CGA:  13    -0.933270108554E+02   -0.24790E-05   -0.24767E-05 10752   0.857E-05 0.122E-06
CGA:  14    -0.933270113155E+02   -0.46013E-06   -0.46293E-06 10752   0.758E-05 0.782E-07
   5 F= -.93327011E+02 E0= -.93330154E+02  d E =-.430788E-03  mag=     8.4058
       N       E                     dE             d eps       ncg     rms          ort
SDA:   1    -0.933248460069E+02    0.21648E-02    0.00000E+00 10752   0.115E-01 0.000E+00
CGA:   2    -0.933252673604E+02   -0.42135E-03   -0.42150E-03 10752   0.841E-02-0.481E-05
CGA:   3    -0.933260658243E+02   -0.79846E-03   -0.79846E-03 10752   0.566E-02-0.844E-06
CGA:   4    -0.933266924207E+02   -0.62660E-03   -0.62667E-03 10752   0.127E-02-0.227E-05
CGA:   5    -0.933268408773E+02   -0.14846E-03   -0.14848E-03 10752   0.187E-02-0.856E-06
CGA:   6    -0.933269117739E+02   -0.70897E-04   -0.70864E-04 10752   0.770E-03-0.856E-06
CGA:   7    -0.933269567418E+02   -0.44968E-04   -0.44959E-04 10752   0.117E-03-0.316E-06
CGA:   8    -0.933269835449E+02   -0.26803E-04   -0.26704E-04 10752   0.202E-03 0.677E-06
CGA:   9    -0.933269893052E+02   -0.57602E-05   -0.57656E-05 10752   0.417E-04 0.156E-06
CGA:  10    -0.933269941630E+02   -0.48578E-05   -0.48715E-05 10752   0.408E-04-0.452E-06
CGA:  11    -0.933269975749E+02   -0.34120E-05   -0.34120E-05 10752   0.356E-04-0.176E-06
CGA:  12    -0.933269987176E+02   -0.11426E-05   -0.11414E-05 10752   0.101E-04-0.257E-07
CGA:  13    -0.933270003148E+02   -0.15973E-05   -0.15884E-05 10752   0.476E-05 0.130E-06
CGA:  14    -0.933270006220E+02   -0.30718E-06   -0.30832E-06 10752   0.426E-05 0.734E-07
   6 F= -.93327001E+02 E0= -.93330152E+02  d E =-.420095E-03  mag=     8.4074
       N       E                     dE             d eps       ncg     rms          ort
SDA:   1    -0.933267225199E+02    0.27779E-03    0.00000E+00 10752   0.229E-02 0.000E+00
CGA:   2    -0.933267838350E+02   -0.61315E-04   -0.61324E-04 10752   0.794E-03-0.195E-06
CGA:   3    -0.933268918032E+02   -0.10797E-03   -0.10796E-03 10752   0.865E-03 0.113E-06
CGA:   4    -0.933269610701E+02   -0.69267E-04   -0.69265E-04 10752   0.405E-03-0.227E-06
CGA:   5    -0.933269744431E+02   -0.13373E-04   -0.13372E-04 10752   0.170E-03-0.145E-06
CGA:   6    -0.933269988311E+02   -0.24388E-04   -0.24348E-04 10752   0.635E-04 0.684E-06
CGA:   7    -0.933270031488E+02   -0.43177E-05   -0.43165E-05 10752   0.337E-04-0.867E-07
CGA:   8    -0.933270043663E+02   -0.12175E-05   -0.12181E-05 10752   0.182E-04 0.193E-07
CGA:   9    -0.933270072520E+02   -0.28858E-05   -0.28776E-05 10752   0.100E-04 0.102E-06
CGA:  10    -0.933270076617E+02   -0.40965E-06   -0.40949E-06 10752   0.567E-05 0.749E-08
   7 F= -.93327008E+02 E0= -.93330159E+02  d E =-.427134E-03  mag=     8.4071
       N       E                     dE             d eps       ncg     rms          ort
SDA:   1    -0.933267331144E+02    0.27414E-03    0.00000E+00 10752   0.296E-02 0.000E+00
CGA:   2    -0.933268205131E+02   -0.87399E-04   -0.87356E-04 10752   0.958E-03 0.141E-05
CGA:   3    -0.933268827313E+02   -0.62218E-04   -0.62221E-04 10752   0.563E-03 0.139E-06
CGA:   4    -0.933269667021E+02   -0.83971E-04   -0.83918E-04 10752   0.520E-03 0.735E-06
CGA:   5    -0.933269818146E+02   -0.15112E-04   -0.15125E-04 10752   0.151E-03 0.332E-06
CGA:   6    -0.933269968380E+02   -0.15023E-04   -0.15021E-04 10752   0.893E-04 0.153E-06
CGA:   7    -0.933270073274E+02   -0.10489E-04   -0.10475E-04 10752   0.213E-04 0.428E-06
CGA:   8    -0.933270082611E+02   -0.93376E-06   -0.92981E-06 10752   0.200E-04-0.101E-06
CGA:   9    -0.933270102985E+02   -0.20374E-05   -0.20433E-05 10752   0.135E-04-0.253E-06
CGA:  10    -0.933270112235E+02   -0.92502E-06   -0.92521E-06 10752   0.563E-05-0.406E-08
   8 F= -.93327011E+02 E0= -.93330160E+02  d E =-.430696E-03  mag=     8.4067
       N       E                     dE             d eps       ncg     rms          ort
SDA:   1    -0.933268296211E+02    0.18068E-03    0.00000E+00 10752   0.639E-02 0.000E+00
CGA:   2    -0.933269585895E+02   -0.12897E-03   -0.12903E-03 10752   0.278E-03-0.176E-05
CGA:   3    -0.933269772115E+02   -0.18622E-04   -0.18628E-04 10752   0.147E-03 0.631E-06
CGA:   4    -0.933269916335E+02   -0.14422E-04   -0.14402E-04 10752   0.289E-03 0.897E-06
CGA:   5    -0.933270040429E+02   -0.12409E-04   -0.12430E-04 10752   0.294E-04 0.618E-06
CGA:   6    -0.933270101725E+02   -0.61295E-05   -0.60661E-05 10752   0.144E-04 0.450E-06
CGA:   7    -0.933270110971E+02   -0.92459E-06   -0.92192E-06 10752   0.102E-04-0.115E-06
   9 F= -.93327011E+02 E0= -.93330158E+02  d E =-.430570E-03  mag=     8.4064
       N       E                     dE             d eps       ncg     rms          ort
SDA:   1    -0.933217263450E+02    0.52838E-02    0.00000E+00 10752   0.186E-01 0.000E+00
CGA:   2    -0.933227184121E+02   -0.99207E-03   -0.99153E-03 10752   0.243E-01-0.120E-05
CGA:   3    -0.933248349396E+02   -0.21165E-02   -0.21164E-02 10752   0.157E-01 0.357E-05
CGA:   4    -0.933260007695E+02   -0.11658E-02   -0.11658E-02 10752   0.592E-02 0.300E-06
CGA:   5    -0.933262484282E+02   -0.24766E-03   -0.24766E-03 10752   0.496E-02 0.142E-05
CGA:   6    -0.933268274268E+02   -0.57900E-03   -0.57876E-03 10752   0.577E-03 0.571E-05
CGA:   7    -0.933269104843E+02   -0.83057E-04   -0.83146E-04 10752   0.101E-02-0.136E-05
CGA:   8    -0.933269581577E+02   -0.47673E-04   -0.47642E-04 10752   0.703E-03-0.101E-05
CGA:   9    -0.933270008669E+02   -0.42709E-04   -0.42701E-04 10752   0.140E-03-0.520E-06
CGA:  10    -0.933270149994E+02   -0.14132E-04   -0.14125E-04 10752   0.252E-03 0.287E-06
CGA:  11    -0.933270260935E+02   -0.11094E-04   -0.11106E-04 10752   0.103E-03 0.307E-06
CGA:  12    -0.933270336376E+02   -0.75441E-05   -0.75472E-05 10752   0.241E-04 0.603E-06
CGA:  13    -0.933270377490E+02   -0.41113E-05   -0.41430E-05 10752   0.218E-04-0.316E-06
CGA:  14    -0.933270383558E+02   -0.60683E-06   -0.60446E-06 10752   0.566E-05-0.331E-07
  10 F= -.93327038E+02 E0= -.93330176E+02  d E =-.272587E-04  mag=     8.4090
       N       E                     dE             d eps       ncg     rms          ort
SDA:   1    -0.933266890798E+02    0.34867E-03    0.00000E+00 10752   0.695E-02 0.000E+00
CGA:   2    -0.933268620879E+02   -0.17301E-03   -0.17302E-03 10752   0.126E-02-0.505E-06
CGA:   3    -0.933269209668E+02   -0.58879E-04   -0.58898E-04 10752   0.328E-03 0.147E-06
CGA:   4    -0.933270041790E+02   -0.83212E-04   -0.83139E-04 10752   0.331E-03 0.415E-06
CGA:   5    -0.933270139745E+02   -0.97954E-05   -0.98113E-05 10752   0.112E-03 0.318E-06
CGA:   6    -0.933270290897E+02   -0.15115E-04   -0.15088E-04 10752   0.774E-04 0.535E-06
CGA:   7    -0.933270348594E+02   -0.57697E-05   -0.57675E-05 10752   0.163E-04-0.106E-06
CGA:   8    -0.933270362515E+02   -0.13922E-05   -0.13915E-05 10752   0.343E-04-0.174E-06
CGA:   9    -0.933270383946E+02   -0.21431E-05   -0.21375E-05 10752   0.862E-05-0.225E-06
CGA:  10    -0.933270392508E+02   -0.85618E-06   -0.85619E-06 10752   0.359E-05-0.410E-07
  11 F= -.93327039E+02 E0= -.93330174E+02  d E =-.281537E-04  mag=     8.4096
       N       E                     dE             d eps       ncg     rms          ort
SDA:   1    -0.933220992983E+02    0.49391E-02    0.00000E+00 10752   0.135E-01 0.000E+00
CGA:   2    -0.933231786768E+02   -0.10794E-02   -0.10795E-02 10752   0.316E-01 0.204E-05
CGA:   3    -0.933256337534E+02   -0.24551E-02   -0.24550E-02 10752   0.601E-02-0.468E-05
CGA:   4    -0.933262067229E+02   -0.57297E-03   -0.57296E-03 10752   0.898E-02 0.153E-05
CGA:   5    -0.933265761983E+02   -0.36948E-03   -0.36959E-03 10752   0.366E-02 0.172E-05
CGA:   6    -0.933268766006E+02   -0.30040E-03   -0.30041E-03 10752   0.559E-03 0.201E-05
CGA:   7    -0.933269620229E+02   -0.85422E-04   -0.85579E-04 10752   0.744E-03-0.237E-05
CGA:   8    -0.933270195509E+02   -0.57528E-04   -0.57519E-04 10752   0.644E-03-0.878E-06
CGA:   9    -0.933270393421E+02   -0.19791E-04   -0.19787E-04 10752   0.111E-03-0.600E-07
CGA:  10    -0.933270624467E+02   -0.23105E-04   -0.23040E-04 10752   0.146E-03 0.538E-06
CGA:  11    -0.933270668668E+02   -0.44201E-05   -0.44320E-05 10752   0.458E-04 0.212E-06
CGA:  12    -0.933270714322E+02   -0.45654E-05   -0.45620E-05 10752   0.272E-04 0.223E-06
CGA:  13    -0.933270740795E+02   -0.26474E-05   -0.26463E-05 10752   0.775E-05 0.132E-06
CGA:  14    -0.933270745173E+02   -0.43773E-06   -0.43784E-06 10752   0.964E-05-0.233E-07
  12 F= -.93327075E+02 E0= -.93330227E+02  d E =-.352665E-04  mag=     8.4171
       N       E                     dE             d eps       ncg     rms          ort
SDA:   1    -0.933229054803E+02    0.41686E-02    0.00000E+00 10752   0.170E-01 0.000E+00
CGA:   2    -0.933236358820E+02   -0.73040E-03   -0.73089E-03 10752   0.159E-01-0.889E-05
CGA:   3    -0.933253897865E+02   -0.17539E-02   -0.17539E-02 10752   0.104E-01-0.631E-06
CGA:   4    -0.933263741415E+02   -0.98435E-03   -0.98437E-03 10752   0.267E-02-0.465E-07
CGA:   5    -0.933267707181E+02   -0.39658E-03   -0.39643E-03 10752   0.267E-02 0.224E-05
CGA:   6    -0.933268857674E+02   -0.11505E-03   -0.11506E-03 10752   0.145E-02-0.129E-06
CGA:   7    -0.933269519839E+02   -0.66217E-04   -0.66214E-04 10752   0.325E-03-0.189E-06
CGA:   8    -0.933270189834E+02   -0.66999E-04   -0.67154E-04 10752   0.665E-03-0.127E-05
CGA:   9    -0.933270369330E+02   -0.17950E-04   -0.17929E-04 10752   0.102E-03-0.560E-06
CGA:  10    -0.933270510128E+02   -0.14080E-04   -0.14072E-04 10752   0.993E-04 0.168E-06
CGA:  11    -0.933270602740E+02   -0.92612E-05   -0.92601E-05 10752   0.240E-04 0.446E-06
CGA:  12    -0.933270628236E+02   -0.25495E-05   -0.25491E-05 10752   0.492E-04 0.731E-07
CGA:  13    -0.933270647727E+02   -0.19491E-05   -0.19486E-05 10752   0.637E-05 0.135E-07
CGA:  14    -0.933270653800E+02   -0.60738E-06   -0.60764E-06 10752   0.492E-05 0.113E-07
  13 F= -.93327065E+02 E0= -.93330235E+02  d E =-.261293E-04  mag=     8.4243
       N       E                     dE             d eps       ncg     rms          ort
SDA:   1    -0.933217263055E+02    0.53385E-02    0.00000E+00 10752   0.251E-01 0.000E+00
CGA:   2    -0.933226699951E+02   -0.94369E-03   -0.94385E-03 10752   0.207E-01-0.664E-05
CGA:   3    -0.933253173669E+02   -0.26474E-02   -0.26474E-02 10752   0.110E-01-0.232E-05
CGA:   4    -0.933261513148E+02   -0.83395E-03   -0.83392E-03 10752   0.847E-02 0.149E-05
CGA:   5    -0.933264613350E+02   -0.31002E-03   -0.31024E-03 10752   0.355E-02-0.157E-05
CGA:   6    -0.933269071924E+02   -0.44586E-03   -0.44577E-03 10752   0.911E-03 0.205E-05
CGA:   7    -0.933269690340E+02   -0.61842E-04   -0.61849E-04 10752   0.593E-03 0.186E-06
CGA:   8    -0.933269969581E+02   -0.27924E-04   -0.27915E-04 10752   0.534E-03-0.161E-06
CGA:   9    -0.933270483769E+02   -0.51419E-04   -0.51437E-04 10752   0.100E-03-0.142E-05
CGA:  10    -0.933270552954E+02   -0.69185E-05   -0.69168E-05 10752   0.168E-03-0.904E-07
CGA:  11    -0.933270664617E+02   -0.11166E-04   -0.11168E-04 10752   0.504E-04 0.999E-07
CGA:  12    -0.933270708462E+02   -0.43845E-05   -0.43839E-05 10752   0.243E-04 0.171E-06
CGA:  13    -0.933270733949E+02   -0.25488E-05   -0.25442E-05 10752   0.406E-04 0.216E-06
CGA:  14    -0.933270748674E+02   -0.14725E-05   -0.14797E-05 10752   0.750E-05 0.154E-06
CGA:  15    -0.933270755070E+02   -0.63957E-06   -0.63793E-06 10752   0.444E-05 0.666E-07
  14 F= -.93327076E+02 E0= -.93330267E+02  d E =-.101270E-04  mag=     8.4298
       N       E                     dE             d eps       ncg     rms          ort
SDA:   1    -0.933259447289E+02    0.11301E-02    0.00000E+00 10752   0.151E-01 0.000E+00
CGA:   2    -0.933262816320E+02   -0.33690E-03   -0.33647E-03 10752   0.245E-02 0.159E-04
CGA:   3    -0.933266670861E+02   -0.38545E-03   -0.38556E-03 10752   0.272E-02-0.138E-05
CGA:   4    -0.933268784114E+02   -0.21133E-03   -0.21133E-03 10752   0.216E-02 0.831E-06
CGA:   5    -0.933269505204E+02   -0.72109E-04   -0.72150E-04 10752   0.547E-03 0.111E-05
CGA:   6    -0.933270196713E+02   -0.69151E-04   -0.69089E-04 10752   0.331E-03 0.131E-05
CGA:   7    -0.933270462399E+02   -0.26569E-04   -0.26569E-04 10752   0.783E-04 0.488E-06
CGA:   8    -0.933270498805E+02   -0.36406E-05   -0.36340E-05 10752   0.872E-04-0.204E-06
CGA:   9    -0.933270594165E+02   -0.95360E-05   -0.95643E-05 10752   0.178E-04-0.938E-06
CGA:  10    -0.933270606346E+02   -0.12181E-05   -0.12190E-05 10752   0.310E-04 0.951E-07
CGA:  11    -0.933270627683E+02   -0.21337E-05   -0.21357E-05 10752   0.634E-05 0.195E-06
CGA:  12    -0.933270634061E+02   -0.63784E-06   -0.63630E-06 10752   0.484E-05 0.928E-07
  15 F= -.93327063E+02 E0= -.93330267E+02  d E =0.197391E-05  mag=     8.4320
       N       E                     dE             d eps       ncg     rms          ort
SDA:   1    -0.933264636988E+02    0.59907E-03    0.00000E+00 10752   0.165E-01 0.000E+00
CGA:   2    -0.933267954893E+02   -0.33179E-03   -0.33241E-03 10752   0.891E-03-0.279E-04
CGA:   3    -0.933269113292E+02   -0.11584E-03   -0.11583E-03 10752   0.109E-02 0.171E-06
CGA:   4    -0.933269727970E+02   -0.61468E-04   -0.61470E-04 10752   0.111E-02 0.278E-07
CGA:   5    -0.933270321986E+02   -0.59402E-04   -0.59391E-04 10752   0.175E-03-0.535E-06
CGA:   6    -0.933270572096E+02   -0.25011E-04   -0.25097E-04 10752   0.128E-03-0.129E-05
CGA:   7    -0.933270663739E+02   -0.91643E-05   -0.91653E-05 10752   0.382E-04 0.384E-07
CGA:   8    -0.933270676957E+02   -0.13218E-05   -0.13268E-05 10752   0.236E-04 0.124E-06
CGA:   9    -0.933270709155E+02   -0.32198E-05   -0.31862E-05 10752   0.566E-05 0.610E-06
CGA:  10    -0.933270713094E+02   -0.39395E-06   -0.39387E-06 10752   0.103E-04 0.190E-08
  16 F= -.93327071E+02 E0= -.93330272E+02  d E =-.592938E-05  mag=     8.4313
       N       E                     dE             d eps       ncg     rms          ort
SDA:   1    -0.933269846712E+02    0.86244E-04    0.00000E+00 10752   0.947E-03 0.000E+00
CGA:   2    -0.933270152509E+02   -0.30580E-04   -0.30584E-04 10752   0.343E-03 0.352E-06
CGA:   3    -0.933270338483E+02   -0.18597E-04   -0.18595E-04 10752   0.164E-03-0.123E-06
CGA:   4    -0.933270617216E+02   -0.27873E-04   -0.27901E-04 10752   0.138E-03-0.314E-06
CGA:   5    -0.933270659955E+02   -0.42739E-05   -0.42664E-05 10752   0.531E-04-0.159E-06
CGA:   6    -0.933270704007E+02   -0.44052E-05   -0.44067E-05 10752   0.275E-04-0.331E-06
CGA:   7    -0.933270740226E+02   -0.36218E-05   -0.36244E-05 10752   0.549E-05-0.873E-07
CGA:   8    -0.933270742768E+02   -0.25422E-06   -0.25642E-06 10752   0.587E-05 0.742E-07
  17 F= -.93327074E+02 E0= -.93330272E+02  d E =-.889677E-05  mag=     8.4307
       N       E                     dE             d eps       ncg     rms          ort
SDA:   1    -0.933269747635E+02    0.99259E-04    0.00000E+00 10752   0.291E-02 0.000E+00
CGA:   2    -0.933270540770E+02   -0.79313E-04   -0.79349E-04 10752   0.536E-03-0.511E-06
CGA:   3    -0.933270707195E+02   -0.16642E-04   -0.16651E-04 10752   0.140E-04 0.361E-06
CGA:   4    -0.933270742360E+02   -0.35165E-05   -0.36018E-05 10752   0.855E-05-0.467E-06
CGA:   5    -0.933270746925E+02   -0.45659E-06   -0.44973E-06 10752   0.983E-05-0.220E-06
  18 F= -.93327075E+02 E0= -.93330271E+02  d E =-.931251E-05  mag=     8.4306
