 vasp.6.4.3 19Mar24 (build Mar 26 2024 14:05:37) complex                        
  
 executed on             LinuxIFC date 2024.12.16  22:46:49
 running  128 mpi-ranks, on    1 nodes
 distrk:  each k-point on   32 cores,    4 groups
 distr:  one band on NCORE=   1 cores,   32 groups


--------------------------------------------------------------------------------------------------------


 INCAR:
   ALGO = Normal
   EDIFF = 1e-06
   EDIFFG = -0.01
   ENCUT = 520
   GGA = Pe
   IBRION = -1
   ISIF = 4
   ISMEAR = -5
   ISPIN = 2
   KPAR = 4
   LCHARG = True
   LORBIT = 11
   LREAL = False
   LWAVE = False
   MAGMOM = 1*-2.552 1*2.643 1*2.621 1*-2.609 1*2.599 1*2.776 1*-2.552 1*2.643 1*2.621 1*-0.046 1*0.058 1*0.275
   NELM = 200
   NSW = 0
   PREC = Accurate
   SIGMA = 0.2

 POTCAR:    PAW_PBE Fe_pv 02Aug2007               
 POTCAR:    PAW_PBE Pt 04Feb2005                  
 -----------------------------------------------------------------------------
|                                                                             |
|           W    W    AA    RRRRR   N    N  II  N    N   GGGG   !!!           |
|           W    W   A  A   R    R  NN   N  II  NN   N  G    G  !!!           |
|           W    W  A    A  R    R  N N  N  II  N N  N  G       !!!           |
|           W WW W  AAAAAA  RRRRR   N  N N  II  N  N N  G  GGG   !            |
|           WW  WW  A    A  R   R   N   NN  II  N   NN  G    G                |
|           W    W  A    A  R    R  N    N  II  N    N   GGGG   !!!           |
|                                                                             |
|     For optimal performance we recommend to set                             |
|       NCORE = 2 up to number-of-cores-per-socket                            |
|     NCORE specifies how many cores store one orbital (NPAR=cpu/NCORE).      |
|     This setting can greatly improve the performance of VASP for DFT.       |
|     The default, NCORE=1 might be grossly inefficient on modern             |
|     multi-core architectures or massively parallel machines. Do your        |
|     own testing! More info at https://www.vasp.at/wiki/index.php/NCORE      |
|     Unfortunately you need to use the default for GW and RPA                |
|     calculations (for HF NCORE is supported but not extensively tested      |
|     yet).                                                                   |
|                                                                             |
 -----------------------------------------------------------------------------

 POTCAR:    PAW_PBE Fe_pv 02Aug2007               
   SHA256 =  5d22e414b1f82158bf2c7ecb8b97b28fd0923e48cadc1c3bf74d524558f5dd32 Fe_pv/POTCAR          
   COPYR  = (c) Copyright 02Aug2007 Georg Kresse                                                    
   COPYR  = This file is part of the software VASP. Any use, copying, and all other rights are regul
   COPYR  = If you do not have a valid VASP license, you may not use, copy or distribute this file. 
   VRHFIN =Fe:  3pd7s1                                                                              
   LEXCH  = PE                                                                                      
   EATOM  =  2457.4239 eV,  180.6156 Ry                                                             
                                                                                                    
   TITEL  = PAW_PBE Fe_pv 02Aug2007                                                                 
   LULTRA =        F    use ultrasoft PP ?                                                          
   IUNSCR =        1    unscreen: 0-lin 1-nonlin 2-no                                               
   RPACOR =    1.750    partial core radius                                                         
   POMASS =   55.847; ZVAL   =   14.000    mass and valenz                                          
   RCORE  =    2.200    outmost cutoff radius                                                       
   RWIGS  =    2.200; RWIGS  =    1.164    wigner-seitz radius (au A)                               
   ENMAX  =  293.238; ENMIN  =  219.928 eV                                                          
   ICORE  =        3    local potential                                                             
   LCOR   =        T    correct aug charges                                                         
   LPAW   =        T    paw PP                                                                      
   EAUG   =  578.342                                                                                
   DEXC   =    0.000                                                                                
   RMAX   =    2.249    core radius for proj-oper                                                   
   RAUG   =    1.300    factor for augmentation sphere                                              
   RDEP   =    2.296    radius for radial grids                                                     
   RDEPT  =    1.766    core radius for aug-charge                                                  
                                                                                                    
   Atomic configuration                                                                             
    8 entries                                                                                       
     n  l   j            E        occ.                                                              
     1  0  0.50     -6993.8440   2.0000                                                             
     2  0  0.50      -814.6047   2.0000                                                             
     2  1  1.50      -693.3689   6.0000                                                             
     3  0  0.50       -89.4732   2.0000                                                             
     3  1  1.50       -55.6373   6.0000                                                             
     3  2  2.50        -3.8151   7.0000                                                             
     4  0  0.50        -4.2551   1.0000                                                             
     4  3  2.50        -1.3606   0.0000                                                             
   Description                                                                                      
     l       E           TYP  RCUT    TYP  RCUT                                                     
     1    -55.6372668     23  2.000                                                                 
     1     -5.4423304     23  2.000                                                                 
     2     -3.8151096     23  2.200                                                                 
     2     -5.1756922     23  2.200                                                                 
     0     -4.2550951     23  2.200                                                                 
     0     27.2116520     23  2.200                                                                 
     3     -1.3605826     23  2.200                                                                 
  local pseudopotential read in
  partial core-charges read in
  partial kinetic energy density read in
  atomic valenz-charges read in
  non local Contribution for L=           1  read in
    real space projection operators read in
  non local Contribution for L=           1  read in
    real space projection operators read in
  non local Contribution for L=           2  read in
    real space projection operators read in
  non local Contribution for L=           2  read in
    real space projection operators read in
  non local Contribution for L=           0  read in
    real space projection operators read in
  non local Contribution for L=           0  read in
    real space projection operators read in
    PAW grid and wavefunctions read in
 
   number of l-projection  operators is LMAX  =           6
   number of lm-projection operators is LMMAX =          18
 
 POTCAR:    PAW_PBE Pt 04Feb2005                  
   SHA256 =  3ed90460adef76debcff1cfb73ee1349b515b1a3db03439735b44de3a8db7dc8 Pt/POTCAR             
   COPYR  = (c) Copyright 04Feb2005 Georg Kresse                                                    
   COPYR  = This file is part of the software VASP. Any use, copying, and all other rights are regul
   COPYR  = If you do not have a valid VASP license, you may not use, copy or distribute this file. 
   VRHFIN =Pt: s1d9                                                                                 
   LEXCH  = PE                                                                                      
   EATOM  =   729.1176 eV,   53.5886 Ry                                                             
                                                                                                    
   TITEL  = PAW_PBE Pt 04Feb2005                                                                    
   LULTRA =        F    use ultrasoft PP ?                                                          
   IUNSCR =        1    unscreen: 0-lin 1-nonlin 2-no                                               
   RPACOR =    2.330    partial core radius                                                         
   POMASS =  195.080; ZVAL   =   10.000    mass and valenz                                          
   RCORE  =    2.600    outmost cutoff radius                                                       
   RWIGS  =    2.750; RWIGS  =    1.455    wigner-seitz radius (au A)                               
   ENMAX  =  230.283; ENMIN  =  172.712 eV                                                          
   ICORE  =        3    local potential                                                             
   LCOR   =        T    correct aug charges                                                         
   LPAW   =        T    paw PP                                                                      
   EAUG   =  358.966                                                                                
   DEXC   =    0.000                                                                                
   RMAX   =    2.658    core radius for proj-oper                                                   
   RAUG   =    1.300    factor for augmentation sphere                                              
   RDEP   =    2.761    radius for radial grids                                                     
   RDEPT  =    2.203    core radius for aug-charge                                                  
                                                                                                    
   Atomic configuration                                                                             
   16 entries                                                                                       
     n  l   j            E        occ.                                                              
     1  0  0.50    -78401.1885   2.0000                                                             
     2  0  0.50    -13770.7750   2.0000                                                             
     2  1  1.50    -11931.0468   6.0000                                                             
     3  0  0.50     -3234.7234   2.0000                                                             
     3  1  1.50     -2699.2216   6.0000                                                             
     3  2  2.50     -2119.5714  10.0000                                                             
     4  0  0.50      -695.1528   2.0000                                                             
     4  1  1.50      -519.6034   6.0000                                                             
     4  2  2.50      -306.6786  10.0000                                                             
     4  3  3.50       -70.1041  14.0000                                                             
     5  0  0.50      -101.7747   2.0000                                                             
     5  1  1.50       -55.9873   6.0000                                                             
     5  2  2.50        -6.1423   9.0000                                                             
     6  0  0.50        -5.6573   1.0000                                                             
     6  1  1.50        -6.8029   0.0000                                                             
     5  3  2.50        -1.3606   0.0000                                                             
   Description                                                                                      
     l       E           TYP  RCUT    TYP  RCUT                                                     
     2     -6.1423404     23  2.500                                                                 
     2     -7.5029230     23  2.500                                                                 
     0     -5.6573207     23  2.500                                                                 
     0      0.7416693     23  2.500                                                                 
     1     -2.7211652     23  2.600                                                                 
     1     20.4087390     23  2.600                                                                 
     3     -1.3605826     23  2.500                                                                 
  local pseudopotential read in
  partial core-charges read in
  partial kinetic energy density read in
  atomic valenz-charges read in
  non local Contribution for L=           2  read in
    real space projection operators read in
  non local Contribution for L=           2  read in
    real space projection operators read in
  non local Contribution for L=           0  read in
    real space projection operators read in
  non local Contribution for L=           0  read in
    real space projection operators read in
  non local Contribution for L=           1  read in
    real space projection operators read in
  non local Contribution for L=           1  read in
    real space projection operators read in
    PAW grid and wavefunctions read in
 
   number of l-projection  operators is LMAX  =           6
   number of lm-projection operators is LMMAX =          18
 
  PAW_PBE Fe_pv 02Aug2007               :
 energy of atom  1       EATOM=-2457.4239
 kinetic energy error for atom=    0.0062 (will be added to EATOM!!)
  PAW_PBE Pt 04Feb2005                  :
 energy of atom  2       EATOM= -729.1176
 kinetic energy error for atom=    0.0032 (will be added to EATOM!!)
 
 
 POSCAR: Fe9 Pt3
  positions in direct lattice
  velocities in cartesian coordinates


 exchange-correlation table for PE
   RHO(1)=    0.500       N(1)  =     2000
   RHO(2)=  100.500       N(2)  =     4000
 


--------------------------------------------------------------------------------------------------------


 ion  position               nearest neighbor table
   1  0.000  0.500  0.167-   4 2.61   4 2.61  11 2.62  11 2.62   7 2.63   7 2.63   7 2.63   7 2.63
                            10 2.67  10 2.67   5 2.69   5 2.69
   2  0.000  0.500  0.499-   5 2.60   5 2.60   8 2.63   8 2.63   8 2.63   8 2.63   6 2.64   6 2.64
                            12 2.65  12 2.65  11 2.68  11 2.68
   3  0.000  0.500  0.833-   9 2.63   9 2.63   9 2.63   9 2.63  10 2.64  10 2.64  12 2.66  12 2.66
                             6 2.67   6 2.67   4 2.70   4 2.70
   4  0.500  0.500  0.005-   1 2.61   7 2.61   7 2.61   1 2.61  10 2.63  10 2.63  10 2.63  10 2.63
                             9 2.70   3 2.70   9 2.70   3 2.70
   5  0.500  0.500  0.339-   2 2.60   8 2.60   8 2.60   2 2.60  11 2.63  11 2.63  11 2.63  11 2.63
                             1 2.69   7 2.69   1 2.69   7 2.69
   6  0.500  0.500  0.664-  12 2.63  12 2.63  12 2.63  12 2.63   8 2.64   2 2.64   2 2.64   8 2.64
                             9 2.67   3 2.67   9 2.67   3 2.67
   7  0.500  0.000  0.167-   4 2.61   4 2.61  11 2.62  11 2.62   1 2.63   1 2.63   1 2.63   1 2.63
                            10 2.67  10 2.67   5 2.69   5 2.69
   8  0.500  0.000  0.499-   5 2.60   5 2.60   2 2.63   2 2.63   2 2.63   2 2.63   6 2.64   6 2.64
                            12 2.65  12 2.65  11 2.68  11 2.68
   9  0.500  0.000  0.833-   3 2.63   3 2.63   3 2.63   3 2.63  10 2.64  10 2.64  12 2.66  12 2.66
                             6 2.67   6 2.67   4 2.70   4 2.70
  10  0.000  0.000  0.998-   4 2.63   4 2.63   4 2.63   4 2.63   3 2.64   9 2.64   9 2.64   3 2.64
                             1 2.67   7 2.67   7 2.67   1 2.67
  11  0.000  0.000  0.329-   1 2.62   7 2.62   1 2.62   7 2.62   5 2.63   5 2.63   5 2.63   5 2.63
                             2 2.68   2 2.68   8 2.68   8 2.68
  12  0.000  0.000  0.666-   6 2.63   6 2.63   6 2.63   6 2.63   2 2.65   8 2.65   8 2.65   2 2.65
                             3 2.66   3 2.66   9 2.66   9 2.66
 
  LATTYP: Found a simple tetragonal cell.
 ALAT       =     3.7221041161
 C/A-ratio  =     3.0446270444
  
  Lattice vectors:
  
 A1 = (   3.7221041161,   0.0000000000,   0.0000000000)
 A2 = (   0.0000000000,   3.7221041161,   0.0000000000)
 A3 = (   0.0000000000,   0.0000000000,  11.3324188542)


Analysis of symmetry for initial positions (statically):
=====================================================================
 Subroutine PRICEL returns:
 Original cell was already a primitive cell.
 

 Routine SETGRP: Setting up the symmetry group for a 
 simple tetragonal supercell.


 Subroutine GETGRP returns: Found  8 space group operations
 (whereof  8 operations were pure point group operations)
 out of a pool of 16 trial point group operations.


The static configuration has the point symmetry C_4v.


Analysis of symmetry for dynamics (positions and initial velocities):
=====================================================================
 Subroutine PRICEL returns:
 Original cell was already a primitive cell.
 

 Routine SETGRP: Setting up the symmetry group for a 
 simple tetragonal supercell.


 Subroutine GETGRP returns: Found  8 space group operations
 (whereof  8 operations were pure point group operations)
 out of a pool of 16 trial point group operations.


The dynamic configuration has the point symmetry C_4v.


Analysis of structural, dynamic, and magnetic symmetry:
=====================================================================
 Subroutine PRICEL returns:
 Original cell was already a primitive cell.
 

 Routine SETGRP: Setting up the symmetry group for a 
 simple tetragonal supercell.


 Subroutine GETGRP returns: Found  8 space group operations
 (whereof  8 operations were pure point group operations)
 out of a pool of 16 trial point group operations.


The overall configuration has the point symmetry C_4v.


 Subroutine INISYM returns: Found  8 space group operations
 (whereof  8 operations are pure point group operations),
 and found     1 'primitive' translations


----------------------------------------------------------------------------------------

                                     Primitive cell                                     

  volume of cell :     157.0000

  direct lattice vectors                    reciprocal lattice vectors
     3.722104116  0.000000000  0.000000000     0.268665241  0.000000000  0.000000000
     0.000000000  3.722104116  0.000000000     0.000000000  0.268665241  0.000000000
     0.000000000  0.000000000 11.332418854     0.000000000  0.000000000  0.088242414

  length of vectors
     3.722104116  3.722104116 11.332418854     0.268665241  0.268665241  0.088242414

  position of ions in fractional coordinates (direct lattice)
     0.000000000  0.500000000  0.166712317
     0.000000000  0.500000000  0.499173116
     0.000000000  0.500000000  0.833335082
     0.500000000  0.500000000  0.005400706
     0.500000000  0.500000000  0.338517964
     0.500000000  0.500000000  0.663873646
     0.500000000  0.000000000  0.166712317
     0.500000000  0.000000000  0.499173116
     0.500000000  0.000000000  0.833335082
     0.000000000  0.000000000  0.998221744
     0.000000000  0.000000000  0.329366486
     0.000000000  0.000000000  0.666178423

  ion indices of the primitive-cell ions
   primitive index   ion index
                 1           1
                 2           2
                 3           3
                 4           4
                 5           5
                 6           6
                 7           7
                 8           8
                 9           9
                10          10
                11          11
                12          12

----------------------------------------------------------------------------------------

 
 
 KPOINTS: pymatgen with grid density = 8800 / numb

Automatic generation of k-mesh.
 Grid dimensions read from file:
 generate k-points for:   13   13    4

 Generating k-lattice:

  Cartesian coordinates                     Fractional coordinates (reciprocal lattice)
     0.020666557  0.000000000  0.000000000     0.076923077  0.000000000  0.000000000
     0.000000000  0.020666557  0.000000000     0.000000000  0.076923077  0.000000000
     0.000000000  0.000000000  0.022060604     0.000000000  0.000000000  0.250000000

  Length of vectors
     0.020666557  0.020666557  0.022060604

  Shift w.r.t. Gamma in fractional coordinates (k-lattice)
     0.000000000  0.000000000  0.000000000

 TETIRR: Found   1010 inequivalent tetrahedra from     4056
 
 Subroutine IBZKPT returns following result:
 ===========================================
 
 Found     84 irreducible k-points:
 
 Following reciprocal coordinates:
            Coordinates               Weight
  0.000000  0.000000  0.000000      1.000000
  0.076923  0.000000  0.000000      4.000000
  0.153846  0.000000  0.000000      4.000000
  0.230769  0.000000  0.000000      4.000000
  0.307692  0.000000  0.000000      4.000000
  0.384615  0.000000  0.000000      4.000000
  0.461538  0.000000  0.000000      4.000000
  0.076923  0.076923  0.000000      4.000000
  0.153846  0.076923  0.000000      8.000000
  0.230769  0.076923  0.000000      8.000000
  0.307692  0.076923  0.000000      8.000000
  0.384615  0.076923  0.000000      8.000000
  0.461538  0.076923  0.000000      8.000000
  0.153846  0.153846  0.000000      4.000000
  0.230769  0.153846  0.000000      8.000000
  0.307692  0.153846  0.000000      8.000000
  0.384615  0.153846  0.000000      8.000000
  0.461538  0.153846  0.000000      8.000000
  0.230769  0.230769  0.000000      4.000000
  0.307692  0.230769  0.000000      8.000000
  0.384615  0.230769  0.000000      8.000000
  0.461538  0.230769  0.000000      8.000000
  0.307692  0.307692  0.000000      4.000000
  0.384615  0.307692  0.000000      8.000000
  0.461538  0.307692  0.000000      8.000000
  0.384615  0.384615  0.000000      4.000000
  0.461538  0.384615  0.000000      8.000000
  0.461538  0.461538  0.000000      4.000000
  0.000000  0.000000  0.250000      2.000000
  0.076923  0.000000  0.250000      8.000000
  0.153846  0.000000  0.250000      8.000000
  0.230769  0.000000  0.250000      8.000000
  0.307692  0.000000  0.250000      8.000000
  0.384615  0.000000  0.250000      8.000000
  0.461538  0.000000  0.250000      8.000000
  0.076923  0.076923  0.250000      8.000000
  0.153846  0.076923  0.250000     16.000000
  0.230769  0.076923  0.250000     16.000000
  0.307692  0.076923  0.250000     16.000000
  0.384615  0.076923  0.250000     16.000000
  0.461538  0.076923  0.250000     16.000000
  0.153846  0.153846  0.250000      8.000000
  0.230769  0.153846  0.250000     16.000000
  0.307692  0.153846  0.250000     16.000000
  0.384615  0.153846  0.250000     16.000000
  0.461538  0.153846  0.250000     16.000000
  0.230769  0.230769  0.250000      8.000000
  0.307692  0.230769  0.250000     16.000000
  0.384615  0.230769  0.250000     16.000000
  0.461538  0.230769  0.250000     16.000000
  0.307692  0.307692  0.250000      8.000000
  0.384615  0.307692  0.250000     16.000000
  0.461538  0.307692  0.250000     16.000000
  0.384615  0.384615  0.250000      8.000000
  0.461538  0.384615  0.250000     16.000000
  0.461538  0.461538  0.250000      8.000000
  0.000000  0.000000  0.500000      1.000000
  0.076923  0.000000  0.500000      4.000000
  0.153846  0.000000  0.500000      4.000000
  0.230769  0.000000  0.500000      4.000000
  0.307692  0.000000  0.500000      4.000000
  0.384615  0.000000  0.500000      4.000000
  0.461538  0.000000  0.500000      4.000000
  0.076923  0.076923  0.500000      4.000000
  0.153846  0.076923  0.500000      8.000000
  0.230769  0.076923  0.500000      8.000000
  0.307692  0.076923  0.500000      8.000000
  0.384615  0.076923  0.500000      8.000000
  0.461538  0.076923  0.500000      8.000000
  0.153846  0.153846  0.500000      4.000000
  0.230769  0.153846  0.500000      8.000000
  0.307692  0.153846  0.500000      8.000000
  0.384615  0.153846  0.500000      8.000000
  0.461538  0.153846  0.500000      8.000000
  0.230769  0.230769  0.500000      4.000000
  0.307692  0.230769  0.500000      8.000000
  0.384615  0.230769  0.500000      8.000000
  0.461538  0.230769  0.500000      8.000000
  0.307692  0.307692  0.500000      4.000000
  0.384615  0.307692  0.500000      8.000000
  0.461538  0.307692  0.500000      8.000000
  0.384615  0.384615  0.500000      4.000000
  0.461538  0.384615  0.500000      8.000000
  0.461538  0.461538  0.500000      4.000000
 
 Following cartesian coordinates:
            Coordinates               Weight
  0.000000  0.000000  0.000000      1.000000
  0.020667  0.000000  0.000000      4.000000
  0.041333  0.000000  0.000000      4.000000
  0.062000  0.000000  0.000000      4.000000
  0.082666  0.000000  0.000000      4.000000
  0.103333  0.000000  0.000000      4.000000
  0.123999  0.000000  0.000000      4.000000
  0.020667  0.020667  0.000000      4.000000
  0.041333  0.020667  0.000000      8.000000
  0.062000  0.020667  0.000000      8.000000
  0.082666  0.020667  0.000000      8.000000
  0.103333  0.020667  0.000000      8.000000
  0.123999  0.020667  0.000000      8.000000
  0.041333  0.041333  0.000000      4.000000
  0.062000  0.041333  0.000000      8.000000
  0.082666  0.041333  0.000000      8.000000
  0.103333  0.041333  0.000000      8.000000
  0.123999  0.041333  0.000000      8.000000
  0.062000  0.062000  0.000000      4.000000
  0.082666  0.062000  0.000000      8.000000
  0.103333  0.062000  0.000000      8.000000
  0.123999  0.062000  0.000000      8.000000
  0.082666  0.082666  0.000000      4.000000
  0.103333  0.082666  0.000000      8.000000
  0.123999  0.082666  0.000000      8.000000
  0.103333  0.103333  0.000000      4.000000
  0.123999  0.103333  0.000000      8.000000
  0.123999  0.123999  0.000000      4.000000
  0.000000  0.000000  0.022061      2.000000
  0.020667  0.000000  0.022061      8.000000
  0.041333  0.000000  0.022061      8.000000
  0.062000  0.000000  0.022061      8.000000
  0.082666  0.000000  0.022061      8.000000
  0.103333  0.000000  0.022061      8.000000
  0.123999  0.000000  0.022061      8.000000
  0.020667  0.020667  0.022061      8.000000
  0.041333  0.020667  0.022061     16.000000
  0.062000  0.020667  0.022061     16.000000
  0.082666  0.020667  0.022061     16.000000
  0.103333  0.020667  0.022061     16.000000
  0.123999  0.020667  0.022061     16.000000
  0.041333  0.041333  0.022061      8.000000
  0.062000  0.041333  0.022061     16.000000
  0.082666  0.041333  0.022061     16.000000
  0.103333  0.041333  0.022061     16.000000
  0.123999  0.041333  0.022061     16.000000
  0.062000  0.062000  0.022061      8.000000
  0.082666  0.062000  0.022061     16.000000
  0.103333  0.062000  0.022061     16.000000
  0.123999  0.062000  0.022061     16.000000
  0.082666  0.082666  0.022061      8.000000
  0.103333  0.082666  0.022061     16.000000
  0.123999  0.082666  0.022061     16.000000
  0.103333  0.103333  0.022061      8.000000
  0.123999  0.103333  0.022061     16.000000
  0.123999  0.123999  0.022061      8.000000
  0.000000  0.000000  0.044121      1.000000
  0.020667  0.000000  0.044121      4.000000
  0.041333  0.000000  0.044121      4.000000
  0.062000  0.000000  0.044121      4.000000
  0.082666  0.000000  0.044121      4.000000
  0.103333  0.000000  0.044121      4.000000
  0.123999  0.000000  0.044121      4.000000
  0.020667  0.020667  0.044121      4.000000
  0.041333  0.020667  0.044121      8.000000
  0.062000  0.020667  0.044121      8.000000
  0.082666  0.020667  0.044121      8.000000
  0.103333  0.020667  0.044121      8.000000
  0.123999  0.020667  0.044121      8.000000
  0.041333  0.041333  0.044121      4.000000
  0.062000  0.041333  0.044121      8.000000
  0.082666  0.041333  0.044121      8.000000
  0.103333  0.041333  0.044121      8.000000
  0.123999  0.041333  0.044121      8.000000
  0.062000  0.062000  0.044121      4.000000
  0.082666  0.062000  0.044121      8.000000
  0.103333  0.062000  0.044121      8.000000
  0.123999  0.062000  0.044121      8.000000
  0.082666  0.082666  0.044121      4.000000
  0.103333  0.082666  0.044121      8.000000
  0.123999  0.082666  0.044121      8.000000
  0.103333  0.103333  0.044121      4.000000
  0.123999  0.103333  0.044121      8.000000
  0.123999  0.123999  0.044121      4.000000
 


--------------------------------------------------------------------------------------------------------




 Dimension of arrays:
   k-points           NKPTS =     84   k-points in BZ     NKDIM =     84   number of bands    NBANDS=    128
   number of dos      NEDOS =    301   number of ions     NIONS =     12
   non local maximal  LDIM  =      6   non local SUM 2l+1 LMDIM =     18
   total plane-waves  NPLWV =  65856
   max r-space proj   IRMAX =      1   max aug-charges    IRDMAX=  25602
   dimension x,y,z NGX =    28 NGY =   28 NGZ =   84
   dimension x,y,z NGXF=    56 NGYF=   56 NGZF=  168
   support grid    NGXF=    56 NGYF=   56 NGZF=  168
   ions per type =               9   3
   NGX,Y,Z   is equivalent  to a cutoff of  12.51, 12.51, 12.32 a.u.
   NGXF,Y,Z  is equivalent  to a cutoff of  25.01, 25.01, 24.65 a.u.

 SYSTEM =  unknown system                          
 POSCAR =  Fe9 Pt3                                 

 Startparameter for this run:
   NWRITE =      2    write-flag & timer
   PREC   = accura    normal or accurate (medium, high low for compatibility)
   ISTART =      0    job   : 0-new  1-cont  2-samecut
   ICHARG =      2    charge: 1-file 2-atom 10-const
   ISPIN  =      2    spin polarized calculation?
   LNONCOLLINEAR =      F non collinear calculations
   LSORBIT =      F    spin-orbit coupling
   INIWAV =      1    electr: 0-lowe 1-rand  2-diag
   LASPH  =      F    aspherical Exc in radial PAW
 Electronic Relaxation 1
   ENCUT  =  520.0 eV  38.22 Ry    6.18 a.u.   6.92  6.92 21.07*2*pi/ulx,y,z
   ENINI  =  520.0     initial cutoff
   ENAUG  =  578.3 eV  augmentation charge cutoff
   NELM   =    200;   NELMIN=  2; NELMDL=  0     # of ELM steps 
   EDIFF  = 0.1E-05   stopping-criterion for ELM
   LREAL  =      F    real-space projection
   NLSPLINE    = F    spline interpolate recip. space projectors
   LCOMPAT=      F    compatible to vasp.4.4
   GGA_COMPAT  = T    GGA compatible to vasp.4.4-vasp.4.6
   LMAXPAW     = -100 max onsite density
   LMAXMIX     =    2 max onsite mixed and CHGCAR
   VOSKOWN=      0    Vosko Wilk Nusair interpolation
   ROPT   =    0.00000   0.00000
 Ionic relaxation
   EDIFFG = -.1E-01   stopping-criterion for IOM
   NSW    =      0    number of steps for IOM
   NBLOCK =      1;   KBLOCK =      1    inner block; outer block 
   IBRION =     -1    ionic relax: 0-MD 1-quasi-New 2-CG
   NFREE  =      0    steps in history (QN), initial steepest desc. (CG)
   ISIF   =      4    stress and relaxation
   IWAVPR =     10    prediction:  0-non 1-charg 2-wave 3-comb
   ISYM   =      2    0-nonsym 1-usesym 2-fastsym
   LCORR  =      T    Harris-Foulkes like correction to forces

   POTIM  = 0.5000    time-step for ionic-motion
   TEIN   =    0.0    initial temperature
   TEBEG  =    0.0;   TEEND  =   0.0 temperature during run
   SMASS  =  -3.00    Nose mass-parameter (am)
   estimated Nose-frequenzy (Omega)   =  0.10E-29 period in steps = 0.13E+47 mass=  -0.317E-27a.u.
   SCALEE = 1.0000    scale energy and forces
   NPACO  =    256;   APACO  = 10.0  distance and # of slots for P.C.
   PSTRESS=    0.0 pullay stress

  Mass of Ions in am
   POMASS =  55.85195.08
  Ionic Valenz
   ZVAL   =  14.00 10.00
  Atomic Wigner-Seitz radii
   RWIGS  =  -1.00 -1.00
  virtual crystal weights 
   VCA    =   1.00  1.00
   NELECT =     156.0000    total number of electrons
   NUPDOWN=      -1.0000    fix difference up-down

 DOS related values:
   EMIN   =  10.00;   EMAX   =-10.00  energy-range for DOS
   EFERMI =   0.00;   METHOD = LEGACY      
   ISMEAR =    -5;   SIGMA  =   0.20  broadening in eV -4-tet -1-fermi 0-gaus

 Electronic relaxation 2 (details)
   IALGO  =     38    algorithm
   LDIAG  =      T    sub-space diagonalisation (order eigenvalues)
   LSUBROT=      F    optimize rotation matrix (better conditioning)
   TURBO    =      0    0=normal 1=particle mesh
   IRESTART =      0    0=no restart 2=restart with 2 vectors
   NREBOOT  =      0    no. of reboots
   NMIN     =      0    reboot dimension
   EREF     =   0.00    reference energy to select bands
   IMIX   =      4    mixing-type and parameters
     AMIX     =   0.40;   BMIX     =  1.00
     AMIX_MAG =   1.60;   BMIX_MAG =  1.00
     AMIN     =   0.10
     WC   =   100.;   INIMIX=   1;  MIXPRE=   1;  MAXMIX= -45

 Intra band minimization:
   WEIMIN = 0.0000     energy-eigenvalue tresh-hold
   EBREAK =  0.20E-08  absolut break condition
   DEPER  =   0.30     relativ break condition  

   TIME   =   0.40     timestep for ELM

  volume/ion in A,a.u.               =      13.08        88.29
  Fermi-wavevector in a.u.,A,eV,Ry     =   1.633615  3.087085 36.309857  2.668699
  Thomas-Fermi vector in A             =   2.725391
 
 Write flags
   LWAVE        =      F    write WAVECAR
   LDOWNSAMPLE  =      F    k-point downsampling of WAVECAR
   LCHARG       =      T    write CHGCAR
   LVTOT        =      F    write LOCPOT, total local potential
   LVHAR        =      F    write LOCPOT, Hartree potential only
   WRT_POTENTIAL= false  ! write potential to hdf5 file
   LELF         =      F    write electronic localiz. function (ELF)
   LORBIT       =     11    0 simple, 1 ext, 2 COOP (PROOUT), +10 PAW based schemes


 Dipole corrections
   LMONO      =      F    monopole corrections only (constant potential shift)
   LDIPOL     =      F    correct potential (dipole corrections)
   IDIPOL     =      0    1-x, 2-y, 3-z, 4-all directions 
   EPSILON    =  1.0000000 bulk dielectric constant
   LVACPOTAV  =      F  vacuum potentials using an averaging scheme for the charge density
   VACPOTFLAT =  0.1000000 required flatness to determine vacuum potential
 Exchange correlation treatment:
   GGA     = PE    functional components
   XC_C    = 1    coefficients multiplying the functional components
   LIBXC   =     F    Libxc                    
   VOSKOWN =     0    Vosko Wilk Nusair interpolation
   LHFCALC =     F    Hartree Fock is set to
   LHFONE  =     F    Hartree Fock one center treatment
   AEXX    =    0.0000 exact exchange contribution

 Parameters of functionals:
   PE:
     No parameter
 
 Van der Waals corrections
   IVDW    =     0    specifies the selected vdW correction

 Linear response parameters
   LEPSILON=     F    determine dielectric tensor
   LRPA    =     F    only Hartree local field effects (RPA)
   LNABLA  =     F    use nabla operator in PAW spheres
   LVEL    =     F    velocity operator in full k-point grid
   CSHIFT  =0.1000    complex shift for real part using Kramers Kronig
   OMEGAMAX=  -1.0    maximum frequency
   DEG_THRESHOLD= 0.2000000E-02 threshold for treating states as degnerate
   RTIME   =   -0.100 relaxation time in fs
  (WPLASMAI=    0.000 imaginary part of plasma frequency in eV, 0.658/RTIME)
   DFIELD  = 0.0000000 0.0000000 0.0000000 field for delta impulse in time
 
  Optional k-point grid parameters
   LKPOINTS_OPT  =     F    use optional k-point grid
   KPOINTS_OPT_MODE=     1    mode for optional k-point grid
 
 Orbital magnetization related:
   ORBITALMAG=     F  switch on orbital magnetization
   LCHIMAG   =     F  perturbation theory with respect to B field
   DQ        =  0.001000  dq finite difference perturbation B field
   LLRAUG    =     F  two centre corrections for induced B field
   LBONE     =     F  B-component reconstruction in AE one-centre
   LVGVCALC  =     T  calculate vGv susceptibility
   LVGVAPPL  =     F  apply vGv susceptibility instead of pGv for G=0

 Random number generation:
   RANDOM_GENERATOR = DEFAULT
   PCG_SEED         = not used


--------------------------------------------------------------------------------------------------------


 Static calculation
 charge density and potential will be updated during run
 spin polarized calculation
 Variant of blocked Davidson
 Davidson routine will perform the subspace rotation
 perform sub-space diagonalisation
    after iterative eigenvector-optimisation
 modified Broyden-mixing scheme, WC =      100.0
 initial mixing is a Kerker type mixing with AMIX =  0.4000 and BMIX =      1.0000
 Hartree-type preconditioning will be used
 using additional bands           50
 reciprocal scheme for non local part
 use partial core corrections
 calculate Harris-corrections to forces 
   (improved forces if not selfconsistent)
 use gradient corrections 
 use of overlap-Matrix (Vanderbilt PP)
 Fermi weights with tetrahedron method with Bloechl corrections


--------------------------------------------------------------------------------------------------------


  energy-cutoff  :      520.00
  volume of cell :      157.00
      direct lattice vectors                 reciprocal lattice vectors
     3.722104116  0.000000000  0.000000000     0.268665241  0.000000000  0.000000000
     0.000000000  3.722104116  0.000000000     0.000000000  0.268665241  0.000000000
     0.000000000  0.000000000 11.332418854     0.000000000  0.000000000  0.088242414

  length of vectors
     3.722104116  3.722104116 11.332418854     0.268665241  0.268665241  0.088242414


 
 k-points in units of 2pi/SCALE and weight: pymatgen with grid density = 8800 / numb
   0.00000000  0.00000000  0.00000000       0.001
   0.02066656  0.00000000  0.00000000       0.006
   0.04133311  0.00000000  0.00000000       0.006
   0.06199967  0.00000000  0.00000000       0.006
   0.08266623  0.00000000  0.00000000       0.006
   0.10333279  0.00000000  0.00000000       0.006
   0.12399934  0.00000000  0.00000000       0.006
   0.02066656  0.02066656  0.00000000       0.006
   0.04133311  0.02066656  0.00000000       0.012
   0.06199967  0.02066656  0.00000000       0.012
   0.08266623  0.02066656  0.00000000       0.012
   0.10333279  0.02066656  0.00000000       0.012
   0.12399934  0.02066656  0.00000000       0.012
   0.04133311  0.04133311  0.00000000       0.006
   0.06199967  0.04133311  0.00000000       0.012
   0.08266623  0.04133311  0.00000000       0.012
   0.10333279  0.04133311  0.00000000       0.012
   0.12399934  0.04133311  0.00000000       0.012
   0.06199967  0.06199967  0.00000000       0.006
   0.08266623  0.06199967  0.00000000       0.012
   0.10333279  0.06199967  0.00000000       0.012
   0.12399934  0.06199967  0.00000000       0.012
   0.08266623  0.08266623  0.00000000       0.006
   0.10333279  0.08266623  0.00000000       0.012
   0.12399934  0.08266623  0.00000000       0.012
   0.10333279  0.10333279  0.00000000       0.006
   0.12399934  0.10333279  0.00000000       0.012
   0.12399934  0.12399934  0.00000000       0.006
   0.00000000  0.00000000  0.02206060       0.003
   0.02066656  0.00000000  0.02206060       0.012
   0.04133311  0.00000000  0.02206060       0.012
   0.06199967  0.00000000  0.02206060       0.012
   0.08266623  0.00000000  0.02206060       0.012
   0.10333279  0.00000000  0.02206060       0.012
   0.12399934  0.00000000  0.02206060       0.012
   0.02066656  0.02066656  0.02206060       0.012
   0.04133311  0.02066656  0.02206060       0.024
   0.06199967  0.02066656  0.02206060       0.024
   0.08266623  0.02066656  0.02206060       0.024
   0.10333279  0.02066656  0.02206060       0.024
   0.12399934  0.02066656  0.02206060       0.024
   0.04133311  0.04133311  0.02206060       0.012
   0.06199967  0.04133311  0.02206060       0.024
   0.08266623  0.04133311  0.02206060       0.024
   0.10333279  0.04133311  0.02206060       0.024
   0.12399934  0.04133311  0.02206060       0.024
   0.06199967  0.06199967  0.02206060       0.012
   0.08266623  0.06199967  0.02206060       0.024
   0.10333279  0.06199967  0.02206060       0.024
   0.12399934  0.06199967  0.02206060       0.024
   0.08266623  0.08266623  0.02206060       0.012
   0.10333279  0.08266623  0.02206060       0.024
   0.12399934  0.08266623  0.02206060       0.024
   0.10333279  0.10333279  0.02206060       0.012
   0.12399934  0.10333279  0.02206060       0.024
   0.12399934  0.12399934  0.02206060       0.012
   0.00000000  0.00000000  0.04412121       0.001
   0.02066656  0.00000000  0.04412121       0.006
   0.04133311  0.00000000  0.04412121       0.006
   0.06199967  0.00000000  0.04412121       0.006
   0.08266623  0.00000000  0.04412121       0.006
   0.10333279  0.00000000  0.04412121       0.006
   0.12399934  0.00000000  0.04412121       0.006
   0.02066656  0.02066656  0.04412121       0.006
   0.04133311  0.02066656  0.04412121       0.012
   0.06199967  0.02066656  0.04412121       0.012
   0.08266623  0.02066656  0.04412121       0.012
   0.10333279  0.02066656  0.04412121       0.012
   0.12399934  0.02066656  0.04412121       0.012
   0.04133311  0.04133311  0.04412121       0.006
   0.06199967  0.04133311  0.04412121       0.012
   0.08266623  0.04133311  0.04412121       0.012
   0.10333279  0.04133311  0.04412121       0.012
   0.12399934  0.04133311  0.04412121       0.012
   0.06199967  0.06199967  0.04412121       0.006
   0.08266623  0.06199967  0.04412121       0.012
   0.10333279  0.06199967  0.04412121       0.012
   0.12399934  0.06199967  0.04412121       0.012
   0.08266623  0.08266623  0.04412121       0.006
   0.10333279  0.08266623  0.04412121       0.012
   0.12399934  0.08266623  0.04412121       0.012
   0.10333279  0.10333279  0.04412121       0.006
   0.12399934  0.10333279  0.04412121       0.012
   0.12399934  0.12399934  0.04412121       0.006
 
 k-points in reciprocal lattice and weights: pymatgen with grid density = 8800 / numb
   0.00000000  0.00000000  0.00000000       0.001
   0.07692308  0.00000000  0.00000000       0.006
   0.15384615  0.00000000  0.00000000       0.006
   0.23076923  0.00000000  0.00000000       0.006
   0.30769231  0.00000000  0.00000000       0.006
   0.38461538  0.00000000  0.00000000       0.006
   0.46153846  0.00000000  0.00000000       0.006
   0.07692308  0.07692308  0.00000000       0.006
   0.15384615  0.07692308  0.00000000       0.012
   0.23076923  0.07692308  0.00000000       0.012
   0.30769231  0.07692308  0.00000000       0.012
   0.38461538  0.07692308  0.00000000       0.012
   0.46153846  0.07692308  0.00000000       0.012
   0.15384615  0.15384615  0.00000000       0.006
   0.23076923  0.15384615  0.00000000       0.012
   0.30769231  0.15384615  0.00000000       0.012
   0.38461538  0.15384615  0.00000000       0.012
   0.46153846  0.15384615  0.00000000       0.012
   0.23076923  0.23076923  0.00000000       0.006
   0.30769231  0.23076923  0.00000000       0.012
   0.38461538  0.23076923  0.00000000       0.012
   0.46153846  0.23076923  0.00000000       0.012
   0.30769231  0.30769231  0.00000000       0.006
   0.38461538  0.30769231  0.00000000       0.012
   0.46153846  0.30769231  0.00000000       0.012
   0.38461538  0.38461538  0.00000000       0.006
   0.46153846  0.38461538  0.00000000       0.012
   0.46153846  0.46153846  0.00000000       0.006
   0.00000000  0.00000000  0.25000000       0.003
   0.07692308  0.00000000  0.25000000       0.012
   0.15384615  0.00000000  0.25000000       0.012
   0.23076923  0.00000000  0.25000000       0.012
   0.30769231  0.00000000  0.25000000       0.012
   0.38461538  0.00000000  0.25000000       0.012
   0.46153846  0.00000000  0.25000000       0.012
   0.07692308  0.07692308  0.25000000       0.012
   0.15384615  0.07692308  0.25000000       0.024
   0.23076923  0.07692308  0.25000000       0.024
   0.30769231  0.07692308  0.25000000       0.024
   0.38461538  0.07692308  0.25000000       0.024
   0.46153846  0.07692308  0.25000000       0.024
   0.15384615  0.15384615  0.25000000       0.012
   0.23076923  0.15384615  0.25000000       0.024
   0.30769231  0.15384615  0.25000000       0.024
   0.38461538  0.15384615  0.25000000       0.024
   0.46153846  0.15384615  0.25000000       0.024
   0.23076923  0.23076923  0.25000000       0.012
   0.30769231  0.23076923  0.25000000       0.024
   0.38461538  0.23076923  0.25000000       0.024
   0.46153846  0.23076923  0.25000000       0.024
   0.30769231  0.30769231  0.25000000       0.012
   0.38461538  0.30769231  0.25000000       0.024
   0.46153846  0.30769231  0.25000000       0.024
   0.38461538  0.38461538  0.25000000       0.012
   0.46153846  0.38461538  0.25000000       0.024
   0.46153846  0.46153846  0.25000000       0.012
   0.00000000  0.00000000  0.50000000       0.001
   0.07692308  0.00000000  0.50000000       0.006
   0.15384615  0.00000000  0.50000000       0.006
   0.23076923  0.00000000  0.50000000       0.006
   0.30769231  0.00000000  0.50000000       0.006
   0.38461538  0.00000000  0.50000000       0.006
   0.46153846  0.00000000  0.50000000       0.006
   0.07692308  0.07692308  0.50000000       0.006
   0.15384615  0.07692308  0.50000000       0.012
   0.23076923  0.07692308  0.50000000       0.012
   0.30769231  0.07692308  0.50000000       0.012
   0.38461538  0.07692308  0.50000000       0.012
   0.46153846  0.07692308  0.50000000       0.012
   0.15384615  0.15384615  0.50000000       0.006
   0.23076923  0.15384615  0.50000000       0.012
   0.30769231  0.15384615  0.50000000       0.012
   0.38461538  0.15384615  0.50000000       0.012
   0.46153846  0.15384615  0.50000000       0.012
   0.23076923  0.23076923  0.50000000       0.006
   0.30769231  0.23076923  0.50000000       0.012
   0.38461538  0.23076923  0.50000000       0.012
   0.46153846  0.23076923  0.50000000       0.012
   0.30769231  0.30769231  0.50000000       0.006
   0.38461538  0.30769231  0.50000000       0.012
   0.46153846  0.30769231  0.50000000       0.012
   0.38461538  0.38461538  0.50000000       0.006
   0.46153846  0.38461538  0.50000000       0.012
   0.46153846  0.46153846  0.50000000       0.006
 
 position of ions in fractional coordinates (direct lattice) 
   0.00000000  0.50000000  0.16671232
   0.00000000  0.50000000  0.49917312
   0.00000000  0.50000000  0.83333508
   0.50000000  0.50000000  0.00540071
   0.50000000  0.50000000  0.33851796
   0.50000000  0.50000000  0.66387365
   0.50000000  0.00000000  0.16671232
   0.50000000  0.00000000  0.49917312
   0.50000000  0.00000000  0.83333508
   0.00000000  0.00000000  0.99822174
   0.00000000  0.00000000  0.32936649
   0.00000000  0.00000000  0.66617842
 
 position of ions in cartesian coordinates  (Angst):
   0.00000000  1.86105206  1.88925381
   0.00000000  1.86105206  5.65683883
   0.00000000  1.86105206  9.44370219
   1.86105206  1.86105206  0.06120306
   1.86105206  1.86105206  3.83622736
   1.86105206  1.86105206  7.52329422
   1.86105206  0.00000000  1.88925381
   1.86105206  0.00000000  5.65683883
   1.86105206  0.00000000  9.44370219
   0.00000000  0.00000000 11.31226691
   0.00000000  0.00000000  3.73251898
   0.00000000  0.00000000  7.54941292
 


--------------------------------------------------------------------------------------------------------


 k-point     1 :   0.0000 0.0000 0.0000  plane waves:    4203
 k-point     2 :   0.0769 0.0000 0.0000  plane waves:    4197
 k-point     3 :   0.1538 0.0000 0.0000  plane waves:    4202
 k-point     4 :   0.2308 0.0000 0.0000  plane waves:    4214
 k-point     5 :   0.3077 0.0000 0.0000  plane waves:    4224
 k-point     6 :   0.3846 0.0000 0.0000  plane waves:    4220
 k-point     7 :   0.4615 0.0000 0.0000  plane waves:    4234
 k-point     8 :   0.0769 0.0769 0.0000  plane waves:    4197
 k-point     9 :   0.1538 0.0769 0.0000  plane waves:    4212
 k-point    10 :   0.2308 0.0769 0.0000  plane waves:    4216
 k-point    11 :   0.3077 0.0769 0.0000  plane waves:    4211
 k-point    12 :   0.3846 0.0769 0.0000  plane waves:    4215
 k-point    13 :   0.4615 0.0769 0.0000  plane waves:    4226
 k-point    14 :   0.1538 0.1538 0.0000  plane waves:    4216
 k-point    15 :   0.2308 0.1538 0.0000  plane waves:    4215
 k-point    16 :   0.3077 0.1538 0.0000  plane waves:    4235
 k-point    17 :   0.3846 0.1538 0.0000  plane waves:    4230
 k-point    18 :   0.4615 0.1538 0.0000  plane waves:    4233
 k-point    19 :   0.2308 0.2308 0.0000  plane waves:    4238
 k-point    20 :   0.3077 0.2308 0.0000  plane waves:    4230
 k-point    21 :   0.3846 0.2308 0.0000  plane waves:    4242
 k-point    22 :   0.4615 0.2308 0.0000  plane waves:    4234
 k-point    23 :   0.3077 0.3077 0.0000  plane waves:    4240
 k-point    24 :   0.3846 0.3077 0.0000  plane waves:    4243
 k-point    25 :   0.4615 0.3077 0.0000  plane waves:    4237
 k-point    26 :   0.3846 0.3846 0.0000  plane waves:    4248
 k-point    27 :   0.4615 0.3846 0.0000  plane waves:    4239
 k-point    28 :   0.4615 0.4615 0.0000  plane waves:    4244
 k-point    29 :   0.0000 0.0000 0.2500  plane waves:    4186
 k-point    30 :   0.0769 0.0000 0.2500  plane waves:    4208
 k-point    31 :   0.1538 0.0000 0.2500  plane waves:    4206
 k-point    32 :   0.2308 0.0000 0.2500  plane waves:    4209
 k-point    33 :   0.3077 0.0000 0.2500  plane waves:    4211
 k-point    34 :   0.3846 0.0000 0.2500  plane waves:    4229
 k-point    35 :   0.4615 0.0000 0.2500  plane waves:    4232
 k-point    36 :   0.0769 0.0769 0.2500  plane waves:    4202
 k-point    37 :   0.1538 0.0769 0.2500  plane waves:    4211
 k-point    38 :   0.2308 0.0769 0.2500  plane waves:    4212
 k-point    39 :   0.3077 0.0769 0.2500  plane waves:    4211
 k-point    40 :   0.3846 0.0769 0.2500  plane waves:    4219
 k-point    41 :   0.4615 0.0769 0.2500  plane waves:    4238
 k-point    42 :   0.1538 0.1538 0.2500  plane waves:    4210
 k-point    43 :   0.2308 0.1538 0.2500  plane waves:    4223
 k-point    44 :   0.3077 0.1538 0.2500  plane waves:    4226
 k-point    45 :   0.3846 0.1538 0.2500  plane waves:    4233
 k-point    46 :   0.4615 0.1538 0.2500  plane waves:    4236
 k-point    47 :   0.2308 0.2308 0.2500  plane waves:    4232
 k-point    48 :   0.3077 0.2308 0.2500  plane waves:    4242
 k-point    49 :   0.3846 0.2308 0.2500  plane waves:    4233
 k-point    50 :   0.4615 0.2308 0.2500  plane waves:    4236
 k-point    51 :   0.3077 0.3077 0.2500  plane waves:    4254
 k-point    52 :   0.3846 0.3077 0.2500  plane waves:    4248
 k-point    53 :   0.4615 0.3077 0.2500  plane waves:    4247
 k-point    54 :   0.3846 0.3846 0.2500  plane waves:    4242
 k-point    55 :   0.4615 0.3846 0.2500  plane waves:    4242
 k-point    56 :   0.4615 0.4615 0.2500  plane waves:    4228
 k-point    57 :   0.0000 0.0000 0.5000  plane waves:    4218
 k-point    58 :   0.0769 0.0000 0.5000  plane waves:    4206
 k-point    59 :   0.1538 0.0000 0.5000  plane waves:    4214
 k-point    60 :   0.2308 0.0000 0.5000  plane waves:    4208
 k-point    61 :   0.3077 0.0000 0.5000  plane waves:    4216
 k-point    62 :   0.3846 0.0000 0.5000  plane waves:    4232
 k-point    63 :   0.4615 0.0000 0.5000  plane waves:    4218
 k-point    64 :   0.0769 0.0769 0.5000  plane waves:    4218
 k-point    65 :   0.1538 0.0769 0.5000  plane waves:    4216
 k-point    66 :   0.2308 0.0769 0.5000  plane waves:    4214
 k-point    67 :   0.3077 0.0769 0.5000  plane waves:    4206
 k-point    68 :   0.3846 0.0769 0.5000  plane waves:    4220
 k-point    69 :   0.4615 0.0769 0.5000  plane waves:    4246
 k-point    70 :   0.1538 0.1538 0.5000  plane waves:    4222
 k-point    71 :   0.2308 0.1538 0.5000  plane waves:    4218
 k-point    72 :   0.3077 0.1538 0.5000  plane waves:    4224
 k-point    73 :   0.3846 0.1538 0.5000  plane waves:    4222
 k-point    74 :   0.4615 0.1538 0.5000  plane waves:    4246
 k-point    75 :   0.2308 0.2308 0.5000  plane waves:    4238
 k-point    76 :   0.3077 0.2308 0.5000  plane waves:    4238
 k-point    77 :   0.3846 0.2308 0.5000  plane waves:    4240
 k-point    78 :   0.4615 0.2308 0.5000  plane waves:    4238
 k-point    79 :   0.3077 0.3077 0.5000  plane waves:    4250
 k-point    80 :   0.3846 0.3077 0.5000  plane waves:    4240
 k-point    81 :   0.4615 0.3077 0.5000  plane waves:    4234
 k-point    82 :   0.3846 0.3846 0.5000  plane waves:    4246
 k-point    83 :   0.4615 0.3846 0.5000  plane waves:    4238
 k-point    84 :   0.4615 0.4615 0.5000  plane waves:    4242

 maximum and minimum number of plane-waves per node :      4254     4186

 maximum number of plane-waves:      4254
 maximum index in each direction: 
   IXMAX=    6   IYMAX=    6   IZMAX=   21
   IXMIN=   -7   IYMIN=   -7   IZMIN=  -21


 serial   3D FFT for wavefunctions
 parallel 3D FFT for charge:
    minimum data exchange during FFTs selected (reduces bandwidth)


 total amount of memory used by VASP MPI-rank0   190020. kBytes
=======================================================================

   base      :      30000. kBytes
   nonl-proj :     103778. kBytes
   fftplans  :        888. kBytes
   grid      :       6813. kBytes
   one-center:        373. kBytes
   wavefun   :      48168. kBytes
 
     INWAV:  cpu time      0.0000: real time      0.0000
 Broyden mixing: mesh for mixing (old mesh)
   NGX = 13   NGY = 13   NGZ = 43
  (NGX  = 56   NGY  = 56   NGZ  =168)
  gives a total of   7267 points

 initial charge density was supplied:
 charge density of overlapping atoms calculated
 number of electron     156.0000000 magnetization       8.4770000
 keeping initial charge density in first step


--------------------------------------------------------------------------------------------------------


 Maximum index for augmentation-charges         1020 (set IRDMAX)


--------------------------------------------------------------------------------------------------------


 First call to EWALD:  gamma=   0.329
 Maximum number of real-space cells 4x 4x 2
 Maximum number of reciprocal cells 2x 2x 5

    FEWALD:  cpu time      0.0016: real time      0.0016


--------------------------------------- Ionic step        1  -------------------------------------------




--------------------------------------- Iteration      1(   1)  ---------------------------------------


    POTLOK:  cpu time      0.0252: real time      0.0777
    SETDIJ:  cpu time      0.0085: real time      0.0089
     EDDAV:  cpu time      5.8903: real time      5.9344
 BZINTS: Fermi energy:   23.158116;  156.000000 electrons
         Band energy: 0.516241E+03;  BLOECHL correction:   -0.050427
       DOS:  cpu time      0.1282: real time      0.1301
    --------------------------------------------
      LOOP:  cpu time      6.0523: real time      6.1511

 eigenvalue-minimisations  : 43008
 total energy-change (2. order) : 0.1772034E+04  (-0.8479705E+04)
 number of electron     156.0000000 magnetization       8.4770000
 augmentation part      156.0000000 magnetization       8.4770000

 Free energy of the ion-electron system (eV)
  ---------------------------------------------------
  alpha Z        PSCENC =      1084.01356410
  Ewald energy   TEWEN  =    -18048.93184832
  -Hartree energ DENC   =     -6015.96441328
  -exchange      EXHF   =         0.00000000
  -V(xc)+E(xc)   XCENC  =       656.52763642
  PAW double counting   =     20094.28577963   -20818.24119668
  entropy T*S    EENTRO =         0.00000000
  eigenvalues    EBANDS =       516.24141198
  atomic energy  EATOM  =     24304.10294433
  Solvation  Ediel_sol  =         0.00000000
  ---------------------------------------------------
  free energy    TOTEN  =      1772.03387816 eV

  energy without entropy =     1772.03387816  energy(sigma->0) =     1772.03387816


--------------------------------------------------------------------------------------------------------




--------------------------------------- Iteration      1(   2)  ---------------------------------------


     EDDAV:  cpu time      5.8579: real time      5.9129
 BZINTS: Fermi energy:   12.177342;  156.000000 electrons
         Band energy:-0.124989E+04;  BLOECHL correction:   -0.019059
       DOS:  cpu time      0.1273: real time      0.1282
    --------------------------------------------
      LOOP:  cpu time      5.9852: real time      6.0411

 eigenvalue-minimisations  : 43008
 total energy-change (2. order) :-0.1766133E+04  (-0.1676911E+04)
 number of electron     156.0000000 magnetization       8.4770000
 augmentation part      156.0000000 magnetization       8.4770000

 Free energy of the ion-electron system (eV)
  ---------------------------------------------------
  alpha Z        PSCENC =      1084.01356410
  Ewald energy   TEWEN  =    -18048.93184832
  -Hartree energ DENC   =     -6015.96441328
  -exchange      EXHF   =         0.00000000
  -V(xc)+E(xc)   XCENC  =       656.52763642
  PAW double counting   =     20094.28577963   -20818.24119668
  entropy T*S    EENTRO =         0.00000000
  eigenvalues    EBANDS =     -1249.89150068
  atomic energy  EATOM  =     24304.10294433
  Solvation  Ediel_sol  =         0.00000000
  ---------------------------------------------------
  free energy    TOTEN  =         5.90096550 eV

  energy without entropy =        5.90096550  energy(sigma->0) =        5.90096550


--------------------------------------------------------------------------------------------------------




--------------------------------------- Iteration      1(   3)  ---------------------------------------


     EDDAV:  cpu time      6.9524: real time      7.0132
 BZINTS: Fermi energy:   11.588224;  156.000000 electrons
         Band energy:-0.135923E+04;  BLOECHL correction:   -0.020282
       DOS:  cpu time      0.1269: real time      0.1278
    --------------------------------------------
      LOOP:  cpu time      7.0793: real time      7.1410

 eigenvalue-minimisations  : 50304
 total energy-change (2. order) :-0.1093353E+03  (-0.1079457E+03)
 number of electron     156.0000000 magnetization       8.4770000
 augmentation part      156.0000000 magnetization       8.4770000

 Free energy of the ion-electron system (eV)
  ---------------------------------------------------
  alpha Z        PSCENC =      1084.01356410
  Ewald energy   TEWEN  =    -18048.93184832
  -Hartree energ DENC   =     -6015.96441328
  -exchange      EXHF   =         0.00000000
  -V(xc)+E(xc)   XCENC  =       656.52763642
  PAW double counting   =     20094.28577963   -20818.24119668
  entropy T*S    EENTRO =         0.00000000
  eigenvalues    EBANDS =     -1359.22681360
  atomic energy  EATOM  =     24304.10294433
  Solvation  Ediel_sol  =         0.00000000
  ---------------------------------------------------
  free energy    TOTEN  =      -103.43434742 eV

  energy without entropy =     -103.43434742  energy(sigma->0) =     -103.43434742


--------------------------------------------------------------------------------------------------------




--------------------------------------- Iteration      1(   4)  ---------------------------------------


     EDDAV:  cpu time      6.2607: real time      6.3065
 BZINTS: Fermi energy:   11.583168;  156.000000 electrons
         Band energy:-0.136083E+04;  BLOECHL correction:   -0.020263
       DOS:  cpu time      0.1243: real time      0.1264
    --------------------------------------------
      LOOP:  cpu time      6.3850: real time      6.4329

 eigenvalue-minimisations  : 45888
 total energy-change (2. order) :-0.1598627E+01  (-0.1598316E+01)
 number of electron     156.0000000 magnetization       8.4770000
 augmentation part      156.0000000 magnetization       8.4770000

 Free energy of the ion-electron system (eV)
  ---------------------------------------------------
  alpha Z        PSCENC =      1084.01356410
  Ewald energy   TEWEN  =    -18048.93184832
  -Hartree energ DENC   =     -6015.96441328
  -exchange      EXHF   =         0.00000000
  -V(xc)+E(xc)   XCENC  =       656.52763642
  PAW double counting   =     20094.28577963   -20818.24119668
  entropy T*S    EENTRO =         0.00000000
  eigenvalues    EBANDS =     -1360.82544062
  atomic energy  EATOM  =     24304.10294433
  Solvation  Ediel_sol  =         0.00000000
  ---------------------------------------------------
  free energy    TOTEN  =      -105.03297443 eV

  energy without entropy =     -105.03297443  energy(sigma->0) =     -105.03297443


--------------------------------------------------------------------------------------------------------




--------------------------------------- Iteration      1(   5)  ---------------------------------------


     EDDAV:  cpu time      7.3994: real time      7.4611
 BZINTS: Fermi energy:   11.583122;  156.000000 electrons
         Band energy:-0.136086E+04;  BLOECHL correction:   -0.020263
       DOS:  cpu time      0.1287: real time      0.1297
    CHARGE:  cpu time      0.1523: real time      0.1533
    MIXING:  cpu time      0.0077: real time      0.0081
    --------------------------------------------
      LOOP:  cpu time      7.6881: real time      7.7522

 eigenvalue-minimisations  : 52896
 total energy-change (2. order) :-0.3132076E-01  (-0.3132005E-01)
 number of electron     156.0000252 magnetization       8.0460679
 augmentation part       79.2502264 magnetization       5.9724347

 Broyden mixing:
  rms(total) = 0.38090E+01    rms(broyden)= 0.38084E+01
  rms(prec ) = 0.43426E+01
  weight for this iteration     100.00

 Free energy of the ion-electron system (eV)
  ---------------------------------------------------
  alpha Z        PSCENC =      1084.01356410
  Ewald energy   TEWEN  =    -18048.93184832
  -Hartree energ DENC   =     -6015.96441328
  -exchange      EXHF   =         0.00000000
  -V(xc)+E(xc)   XCENC  =       656.52763642
  PAW double counting   =     20094.28577963   -20818.24119668
  entropy T*S    EENTRO =         0.00000000
  eigenvalues    EBANDS =     -1360.85676138
  atomic energy  EATOM  =     24304.10294433
  Solvation  Ediel_sol  =         0.00000000
  ---------------------------------------------------
  free energy    TOTEN  =      -105.06429519 eV

  energy without entropy =     -105.06429519  energy(sigma->0) =     -105.06429519


--------------------------------------------------------------------------------------------------------




--------------------------------------- Iteration      1(   6)  ---------------------------------------


    POTLOK:  cpu time      0.0430: real time      0.0438
    SETDIJ:  cpu time      0.0084: real time      0.0085
     EDDAV:  cpu time      7.2726: real time      7.3382
 BZINTS: Fermi energy:    8.898844;  156.000000 electrons
         Band energy:-0.179812E+04;  BLOECHL correction:   -0.021037
       DOS:  cpu time      0.1360: real time      0.1376
    CHARGE:  cpu time      0.1484: real time      0.1495
    MIXING:  cpu time      0.0040: real time      0.0082
    --------------------------------------------
      LOOP:  cpu time      7.6124: real time      7.6858

 eigenvalue-minimisations  : 51936
 total energy-change (2. order) :-0.9468669E+01  (-0.1805113E+02)
 number of electron     156.0000295 magnetization       7.9670006
 augmentation part       88.7305124 magnetization       5.8446531

 Broyden mixing:
  rms(total) = 0.70695E+01    rms(broyden)= 0.70692E+01
  rms(prec ) = 0.10884E+02
  weight for this iteration     100.00

 eigenvalues of (default mixing * dielectric matrix)
  average eigenvalue GAMMA=   0.2117
  0.2117

 Free energy of the ion-electron system (eV)
  ---------------------------------------------------
  alpha Z        PSCENC =      1084.01356410
  Ewald energy   TEWEN  =    -18048.93184832
  -Hartree energ DENC   =     -5594.69908702
  -exchange      EXHF   =         0.00000000
  -V(xc)+E(xc)   XCENC  =       638.77315219
  PAW double counting   =     20396.51162981   -21096.18157777
  entropy T*S    EENTRO =         0.00000000
  eigenvalues    EBANDS =     -1798.12174148
  atomic energy  EATOM  =     24304.10294433
  Solvation  Ediel_sol  =         0.00000000
  ---------------------------------------------------
  free energy    TOTEN  =      -114.53296417 eV

  energy without entropy =     -114.53296417  energy(sigma->0) =     -114.53296417


--------------------------------------------------------------------------------------------------------




--------------------------------------- Iteration      1(   7)  ---------------------------------------


    POTLOK:  cpu time      0.0430: real time      0.0438
    SETDIJ:  cpu time      0.0081: real time      0.0082
     EDDAV:  cpu time      7.3978: real time      7.4501
 BZINTS: Fermi energy:    9.565296;  156.000000 electrons
         Band energy:-0.171309E+04;  BLOECHL correction:   -0.016773
       DOS:  cpu time      0.1369: real time      0.1379
    CHARGE:  cpu time      0.1509: real time      0.1517
    MIXING:  cpu time      0.0030: real time      0.0032
    --------------------------------------------
      LOOP:  cpu time      7.7398: real time      7.7949

 eigenvalue-minimisations  : 52960
 total energy-change (2. order) : 0.3421350E+01  (-0.4529094E+02)
 number of electron     156.0000274 magnetization       7.3298568
 augmentation part       86.1097942 magnetization       7.0336321

 Broyden mixing:
  rms(total) = 0.61908E+01    rms(broyden)= 0.61903E+01
  rms(prec ) = 0.99375E+01
  weight for this iteration     100.00

 eigenvalues of (default mixing * dielectric matrix)
  average eigenvalue GAMMA=   0.2689
  0.4284  0.1093

 Free energy of the ion-electron system (eV)
  ---------------------------------------------------
  alpha Z        PSCENC =      1084.01356410
  Ewald energy   TEWEN  =    -18048.93184832
  -Hartree energ DENC   =     -5663.77796053
  -exchange      EXHF   =         0.00000000
  -V(xc)+E(xc)   XCENC  =       640.49221728
  PAW double counting   =     20673.54232192   -21387.46036853
  entropy T*S    EENTRO =         0.00000000
  eigenvalues    EBANDS =     -1713.09248405
  atomic energy  EATOM  =     24304.10294433
  Solvation  Ediel_sol  =         0.00000000
  ---------------------------------------------------
  free energy    TOTEN  =      -111.11161380 eV

  energy without entropy =     -111.11161380  energy(sigma->0) =     -111.11161380


--------------------------------------------------------------------------------------------------------




--------------------------------------- Iteration      1(   8)  ---------------------------------------


    POTLOK:  cpu time      0.0434: real time      0.0442
    SETDIJ:  cpu time      0.0076: real time      0.0076
     EDDAV:  cpu time      7.1137: real time      7.1634
 BZINTS: Fermi energy:   10.070518;  156.000000 electrons
         Band energy:-0.159777E+04;  BLOECHL correction:   -0.023635
       DOS:  cpu time      0.1380: real time      0.1390
    CHARGE:  cpu time      0.1477: real time      0.1486
    MIXING:  cpu time      0.0017: real time      0.0018
    --------------------------------------------
      LOOP:  cpu time      7.4521: real time      7.5046

 eigenvalue-minimisations  : 51648
 total energy-change (2. order) : 0.1341608E+02  (-0.1291567E+02)
 number of electron     156.0000270 magnetization       7.2041753
 augmentation part       83.8286913 magnetization       4.4640795

 Broyden mixing:
  rms(total) = 0.34400E+01    rms(broyden)= 0.34395E+01
  rms(prec ) = 0.48907E+01
  weight for this iteration     100.00

 eigenvalues of (default mixing * dielectric matrix)
  average eigenvalue GAMMA=   0.3829
  0.7341  0.3122  0.1024

 Free energy of the ion-electron system (eV)
  ---------------------------------------------------
  alpha Z        PSCENC =      1084.01356410
  Ewald energy   TEWEN  =    -18048.93184832
  -Hartree energ DENC   =     -5746.50658321
  -exchange      EXHF   =         0.00000000
  -V(xc)+E(xc)   XCENC  =       642.76585052
  PAW double counting   =     21136.89414200   -21872.26697974
  entropy T*S    EENTRO =         0.00000000
  eigenvalues    EBANDS =     -1597.76662271
  atomic energy  EATOM  =     24304.10294433
  Solvation  Ediel_sol  =         0.00000000
  ---------------------------------------------------
  free energy    TOTEN  =       -97.69553304 eV

  energy without entropy =      -97.69553304  energy(sigma->0) =      -97.69553304


--------------------------------------------------------------------------------------------------------




--------------------------------------- Iteration      1(   9)  ---------------------------------------


    POTLOK:  cpu time      0.0438: real time      0.0447
    SETDIJ:  cpu time      0.0077: real time      0.0078
     EDDAV:  cpu time      7.2131: real time      7.2656
 BZINTS: Fermi energy:   10.175615;  156.000000 electrons
         Band energy:-0.160999E+04;  BLOECHL correction:   -0.017363
       DOS:  cpu time      0.1368: real time      0.1378
    CHARGE:  cpu time      0.1499: real time      0.1507
    MIXING:  cpu time      0.0020: real time      0.0021
    --------------------------------------------
      LOOP:  cpu time      7.5534: real time      7.6086

 eigenvalue-minimisations  : 51744
 total energy-change (2. order) :-0.6938360E+01  (-0.1824386E+02)
 number of electron     156.0000263 magnetization       6.5604950
 augmentation part       84.0110035 magnetization       6.3991012

 Broyden mixing:
  rms(total) = 0.55841E+01    rms(broyden)= 0.55836E+01
  rms(prec ) = 0.82520E+01
  weight for this iteration     100.00

 eigenvalues of (default mixing * dielectric matrix)
  average eigenvalue GAMMA=   0.4431
  1.1859  0.3910  0.1008  0.0946

 Free energy of the ion-electron system (eV)
  ---------------------------------------------------
  alpha Z        PSCENC =      1084.01356410
  Ewald energy   TEWEN  =    -18048.93184832
  -Hartree energ DENC   =     -5735.38668136
  -exchange      EXHF   =         0.00000000
  -V(xc)+E(xc)   XCENC  =       642.25821389
  PAW double counting   =     21319.10246610   -22059.79802382
  entropy T*S    EENTRO =         0.00000000
  eigenvalues    EBANDS =     -1609.99452818
  atomic energy  EATOM  =     24304.10294433
  Solvation  Ediel_sol  =         0.00000000
  ---------------------------------------------------
  free energy    TOTEN  =      -104.63389326 eV

  energy without entropy =     -104.63389326  energy(sigma->0) =     -104.63389326


--------------------------------------------------------------------------------------------------------




--------------------------------------- Iteration      1(  10)  ---------------------------------------


    POTLOK:  cpu time      0.0316: real time      0.0447
    SETDIJ:  cpu time      0.0081: real time      0.0082
     EDDAV:  cpu time      7.3686: real time      7.4186
 BZINTS: Fermi energy:    9.610673;  156.000000 electrons
         Band energy:-0.164108E+04;  BLOECHL correction:   -0.014353
       DOS:  cpu time      0.1362: real time      0.1372
    CHARGE:  cpu time      0.1483: real time      0.1491
    MIXING:  cpu time      0.0020: real time      0.0026
    --------------------------------------------
      LOOP:  cpu time      7.6948: real time      7.7602

 eigenvalue-minimisations  : 52448
 total energy-change (2. order) : 0.7718684E+01  (-0.1234642E+02)
 number of electron     156.0000271 magnetization       6.3998575
 augmentation part       84.9209781 magnetization       4.8871432

 Broyden mixing:
  rms(total) = 0.34759E+01    rms(broyden)= 0.34755E+01
  rms(prec ) = 0.56485E+01
  weight for this iteration     100.00

 eigenvalues of (default mixing * dielectric matrix)
  average eigenvalue GAMMA=   0.3793
  1.1911  0.3841  0.1119  0.1119  0.0978

 Free energy of the ion-electron system (eV)
  ---------------------------------------------------
  alpha Z        PSCENC =      1084.01356410
  Ewald energy   TEWEN  =    -18048.93184832
  -Hartree energ DENC   =     -5690.00642572
  -exchange      EXHF   =         0.00000000
  -V(xc)+E(xc)   XCENC  =       640.12856991
  PAW double counting   =     21546.76539554   -22291.90951225
  entropy T*S    EENTRO =         0.00000000
  eigenvalues    EBANDS =     -1641.07789681
  atomic energy  EATOM  =     24304.10294433
  Solvation  Ediel_sol  =         0.00000000
  ---------------------------------------------------
  free energy    TOTEN  =       -96.91520921 eV

  energy without entropy =      -96.91520921  energy(sigma->0) =      -96.91520921


--------------------------------------------------------------------------------------------------------




--------------------------------------- Iteration      1(  11)  ---------------------------------------


    POTLOK:  cpu time      0.0328: real time      0.0447
    SETDIJ:  cpu time      0.0077: real time      0.0077
     EDDAV:  cpu time      7.2448: real time      7.2937
 BZINTS: Fermi energy:    9.600273;  156.000000 electrons
         Band energy:-0.163994E+04;  BLOECHL correction:   -0.021434
       DOS:  cpu time      0.1376: real time      0.1385
    CHARGE:  cpu time      0.1485: real time      0.1493
    MIXING:  cpu time      0.0018: real time      0.0018
    --------------------------------------------
      LOOP:  cpu time      7.5732: real time      7.6358

 eigenvalue-minimisations  : 51936
 total energy-change (2. order) : 0.5215764E+01  (-0.2797070E+01)
 number of electron     156.0000267 magnetization       6.4413773
 augmentation part       84.7977663 magnetization       4.5953519

 Broyden mixing:
  rms(total) = 0.13361E+01    rms(broyden)= 0.13356E+01
  rms(prec ) = 0.16048E+01
  weight for this iteration     100.00

 eigenvalues of (default mixing * dielectric matrix)
  average eigenvalue GAMMA=   0.3712
  1.2234  0.3476  0.3476  0.1224  0.1013  0.0849

 Free energy of the ion-electron system (eV)
  ---------------------------------------------------
  alpha Z        PSCENC =      1084.01356410
  Ewald energy   TEWEN  =    -18048.93184832
  -Hartree energ DENC   =     -5684.49274895
  -exchange      EXHF   =         0.00000000
  -V(xc)+E(xc)   XCENC  =       639.93790266
  PAW double counting   =     21595.56577715   -22341.95996342
  entropy T*S    EENTRO =         0.00000000
  eigenvalues    EBANDS =     -1639.93507274
  atomic energy  EATOM  =     24304.10294433
  Solvation  Ediel_sol  =         0.00000000
  ---------------------------------------------------
  free energy    TOTEN  =       -91.69944520 eV

  energy without entropy =      -91.69944520  energy(sigma->0) =      -91.69944520


--------------------------------------------------------------------------------------------------------




--------------------------------------- Iteration      1(  12)  ---------------------------------------


    POTLOK:  cpu time      0.0438: real time      0.0447
    SETDIJ:  cpu time      0.0076: real time      0.0076
     EDDAV:  cpu time      7.0382: real time      7.0864
 BZINTS: Fermi energy:    9.641149;  156.000000 electrons
         Band energy:-0.163529E+04;  BLOECHL correction:   -0.020082
       DOS:  cpu time      0.1370: real time      0.1380
    CHARGE:  cpu time      0.1485: real time      0.1493
    MIXING:  cpu time      0.0020: real time      0.0020
    --------------------------------------------
      LOOP:  cpu time      7.3772: real time      7.4280

 eigenvalue-minimisations  : 51200
 total energy-change (2. order) :-0.7919997E+00  (-0.3610884E+00)
 number of electron     156.0000265 magnetization       6.5009383
 augmentation part       84.6816821 magnetization       4.5133555

 Broyden mixing:
  rms(total) = 0.10762E+01    rms(broyden)= 0.10761E+01
  rms(prec ) = 0.12313E+01
  weight for this iteration     100.00

 eigenvalues of (default mixing * dielectric matrix)
  average eigenvalue GAMMA=   0.3536
  1.2226  0.3319  0.3319  0.2965  0.1122  0.1020  0.0781

 Free energy of the ion-electron system (eV)
  ---------------------------------------------------
  alpha Z        PSCENC =      1084.01356410
  Ewald energy   TEWEN  =    -18048.93184832
  -Hartree energ DENC   =     -5688.26023181
  -exchange      EXHF   =         0.00000000
  -V(xc)+E(xc)   XCENC  =       640.65217641
  PAW double counting   =     21647.06661849   -22395.84832239
  entropy T*S    EENTRO =         0.00000000
  eigenvalues    EBANDS =     -1635.28634571
  atomic energy  EATOM  =     24304.10294433
  Solvation  Ediel_sol  =         0.00000000
  ---------------------------------------------------
  free energy    TOTEN  =       -92.49144490 eV

  energy without entropy =      -92.49144490  energy(sigma->0) =      -92.49144490


--------------------------------------------------------------------------------------------------------




--------------------------------------- Iteration      1(  13)  ---------------------------------------


    POTLOK:  cpu time      0.0318: real time      0.0451
    SETDIJ:  cpu time      0.0079: real time      0.0080
     EDDAV:  cpu time      6.9512: real time      6.9983
 BZINTS: Fermi energy:    9.641854;  156.000000 electrons
         Band energy:-0.163594E+04;  BLOECHL correction:   -0.019854
       DOS:  cpu time      0.1346: real time      0.1355
    CHARGE:  cpu time      0.1525: real time      0.1533
    MIXING:  cpu time      0.0020: real time      0.0020
    --------------------------------------------
      LOOP:  cpu time      7.2801: real time      7.3422

 eigenvalue-minimisations  : 50816
 total energy-change (2. order) :-0.9535028E-01  (-0.1811824E+00)
 number of electron     156.0000265 magnetization       6.6537816
 augmentation part       84.7166754 magnetization       4.7410464

 Broyden mixing:
  rms(total) = 0.10218E+01    rms(broyden)= 0.10218E+01
  rms(prec ) = 0.11924E+01
  weight for this iteration     100.00

 eigenvalues of (default mixing * dielectric matrix)
  average eigenvalue GAMMA=   0.3966
  1.2590  0.5680  0.5680  0.3476  0.0807  0.1066  0.1066  0.1366

 Free energy of the ion-electron system (eV)
  ---------------------------------------------------
  alpha Z        PSCENC =      1084.01356410
  Ewald energy   TEWEN  =    -18048.93184832
  -Hartree energ DENC   =     -5687.48485137
  -exchange      EXHF   =         0.00000000
  -V(xc)+E(xc)   XCENC  =       640.81529996
  PAW double counting   =     21660.36922782   -22409.52823145
  entropy T*S    EENTRO =         0.00000000
  eigenvalues    EBANDS =     -1635.94290025
  atomic energy  EATOM  =     24304.10294433
  Solvation  Ediel_sol  =         0.00000000
  ---------------------------------------------------
  free energy    TOTEN  =       -92.58679519 eV

  energy without entropy =      -92.58679519  energy(sigma->0) =      -92.58679519


--------------------------------------------------------------------------------------------------------




--------------------------------------- Iteration      1(  14)  ---------------------------------------


    POTLOK:  cpu time      0.0441: real time      0.0449
    SETDIJ:  cpu time      0.0080: real time      0.0081
     EDDAV:  cpu time      7.2553: real time      7.3061
[...]
    113      23.9598      0.00000
    114      24.3898      0.00000
    115      24.4446      0.00000
    116      24.6823      0.00000
    117      24.8480      0.00000
    118      25.5773      0.00000
    119      25.7253      0.00000
    120      27.1784      0.00000
    121      27.2145      0.00000
    122      27.2548      0.00000
    123      27.6883      0.00000
    124      28.3457      0.00000
    125      28.6538      0.00000
    126      28.8421      0.00000
    127      29.0810      0.00000
    128      29.5968      0.00000


--------------------------------------------------------------------------------------------------------


 soft charge-density along one line, spin component           1
         0         1         2         3         4         5         6         7         8         9
 total charge-density along one line
 
 soft charge-density along one line, spin component           2
         0         1         2         3         4         5         6         7         8         9
 total charge-density along one line
 
 pseudopotential strength for first ion, spin component:           1
-43.020   0.000   0.000   6.791  -0.000  -0.000  -0.000   0.002
  0.000 -43.056   0.000  -0.000   6.806  -0.000  -0.000   0.000
  0.000   0.000 -42.987  -0.000  -0.000   6.777   0.000  -0.000
  6.791  -0.000  -0.000   5.869  -0.000  -0.000   0.000  -0.001
 -0.000   6.806  -0.000  -0.000   5.864  -0.000   0.000  -0.000
 -0.000  -0.000   6.777  -0.000  -0.000   5.871  -0.000   0.000
 -0.000  -0.000   0.000   0.000   0.000  -0.000  -0.526   0.000
  0.002   0.000  -0.000  -0.001  -0.000   0.000   0.000  -0.527
 -0.000   0.003   0.000   0.000   0.000  -0.000  -0.000   0.000
 -0.000  -0.000  -0.005   0.000   0.000   0.005   0.000   0.000
 -0.000  -0.004   0.000   0.000   0.003   0.000  -0.000  -0.000
  0.000  -0.000   0.000   0.000   0.000  -0.000  -1.065   0.000
  0.002   0.000  -0.000  -0.001  -0.000   0.000   0.000  -1.065
 -0.000   0.003   0.000   0.000   0.000  -0.000  -0.000   0.000
 -0.000  -0.000  -0.005   0.000   0.000   0.005   0.000   0.000
 -0.000  -0.004   0.000   0.000   0.003  -0.000  -0.000  -0.000
 -0.000   0.002   0.000  -0.000   0.001   0.000  -0.000  -0.000
 -0.000   0.005  -0.000  -0.000   0.004   0.000  -0.000  -0.000
 pseudopotential strength for first ion, spin component:           2
-45.190   0.000   0.000   7.704  -0.000  -0.000  -0.000   0.005
  0.000 -45.263   0.000  -0.000   7.733  -0.000   0.000   0.000
  0.000   0.000 -45.082  -0.000  -0.000   7.660   0.000   0.000
  7.704  -0.000  -0.000   5.610  -0.000  -0.000  -0.000  -0.003
 -0.000   7.733  -0.000  -0.000   5.604  -0.000  -0.000  -0.000
 -0.000  -0.000   7.660  -0.000  -0.000   5.619  -0.000  -0.000
 -0.000   0.000   0.000  -0.000  -0.000  -0.000  -2.193   0.000
  0.005   0.000   0.000  -0.003  -0.000  -0.000   0.000  -2.365
 -0.000   0.015  -0.000   0.000  -0.007   0.000  -0.000   0.000
  0.000  -0.000   0.025  -0.000  -0.000  -0.011   0.000   0.000
 -0.000   0.010   0.000   0.000  -0.004   0.000   0.000  -0.000
  0.000   0.000   0.000  -0.000  -0.000  -0.000  -2.704   0.000
  0.005   0.000   0.000  -0.003  -0.000  -0.000   0.000  -2.874
 -0.000   0.014  -0.000   0.000  -0.007   0.000  -0.000   0.000
  0.000  -0.000   0.024  -0.000  -0.000  -0.011   0.000   0.000
 -0.000   0.010   0.000   0.000  -0.004  -0.000   0.000  -0.000
 -0.000  -0.005   0.000  -0.000   0.004   0.000  -0.000  -0.000
 -0.000  -0.013  -0.000  -0.000   0.009  -0.000  -0.000  -0.000
 total augmentation occupancy for first ion, spin component:           1
  1.992   0.000   0.000  -0.027   0.000   0.000   0.000  -0.007  -0.000   0.000   0.000   0.000   0.007   0.000   0.000   0.000
  0.000   1.992   0.000   0.000  -0.028  -0.000   0.000   0.000  -0.004   0.000   0.003   0.000   0.000   0.004   0.000  -0.003
  0.000   0.000   1.992   0.000   0.000  -0.027   0.000   0.000   0.000  -0.001  -0.000  -0.000   0.000  -0.000   0.002   0.000
 -0.027   0.000   0.000   0.181   0.000   0.000   0.000  -0.020  -0.000  -0.000  -0.000   0.000   0.025   0.000   0.000   0.000
  0.000  -0.028   0.000   0.000   0.181   0.000   0.000   0.000  -0.011   0.000   0.018   0.000   0.000   0.004   0.000  -0.029
  0.000  -0.000  -0.027   0.000   0.000   0.161   0.000   0.000   0.000   0.013   0.000  -0.000  -0.000   0.000  -0.036  -0.000
  0.000   0.000   0.000   0.000   0.000   0.000   2.784   0.000   0.000   0.000   0.000  -1.488  -0.000   0.000   0.000  -0.000
 -0.007   0.000   0.000  -0.020   0.000   0.000   0.000   2.938   0.000   0.000   0.000   0.000  -1.964  -0.000   0.000   0.000
 -0.000  -0.004   0.000  -0.000  -0.011   0.000   0.000   0.000   3.314   0.000   0.222   0.000   0.000  -1.878  -0.000  -0.123
  0.000   0.000  -0.001  -0.000   0.000   0.013   0.000   0.000   0.000   2.642   0.000   0.000   0.000   0.000  -1.403   0.000
  0.000   0.003  -0.000  -0.000   0.018   0.000   0.000   0.000   0.222   0.000   2.993  -0.000   0.000  -0.123   0.000  -1.687
  0.000   0.000  -0.000   0.000   0.000  -0.000  -1.488   0.000   0.000   0.000  -0.000   1.630  -0.000   0.000   0.000   0.000
  0.007   0.000   0.000   0.025   0.000  -0.000  -0.000  -1.964   0.000   0.000   0.000  -0.000   2.234   0.000   0.000   0.000
  0.000   0.004  -0.000   0.000   0.004   0.000   0.000  -0.000  -1.878   0.000  -0.123   0.000   0.000   1.750   0.000   0.044
  0.000   0.000   0.002   0.000   0.000  -0.036   0.000   0.000  -0.000  -1.403   0.000   0.000   0.000   0.000   1.541   0.000
  0.000  -0.003   0.000   0.000  -0.029  -0.000  -0.000   0.000  -0.123   0.000  -1.687   0.000   0.000   0.044   0.000   1.658
  0.000  -0.001  -0.000   0.000   0.000   0.000   0.000   0.000  -0.114   0.000   0.185   0.000   0.000   0.073   0.000  -0.138
  0.000   0.001   0.000   0.000   0.000   0.000   0.000   0.000   0.012   0.000  -0.011   0.000   0.000  -0.006   0.000   0.008
 total augmentation occupancy for first ion, spin component:           2
  0.002   0.000   0.000   0.008   0.000   0.000   0.000   0.002   0.000   0.000   0.000   0.000  -0.002   0.000   0.000   0.000
  0.000   0.002  -0.000   0.000   0.008  -0.000   0.000   0.000   0.005   0.000   0.004   0.000   0.000  -0.005   0.000  -0.005
  0.000  -0.000   0.002   0.000   0.000   0.009  -0.000   0.000   0.000   0.011   0.000   0.000   0.000  -0.000  -0.012  -0.000
  0.008   0.000   0.000  -0.007   0.000   0.000  -0.000   0.021  -0.000   0.000  -0.000   0.000  -0.018   0.000  -0.000   0.000
  0.000   0.008   0.000   0.000  -0.002   0.000   0.000   0.000  -0.006   0.000  -0.038   0.000   0.000  -0.008   0.000   0.014
  0.000  -0.000   0.009   0.000   0.000  -0.003  -0.000   0.000   0.000  -0.066   0.000   0.000   0.000   0.000   0.014  -0.000
  0.000   0.000  -0.000  -0.000   0.000  -0.000  -2.138   0.000   0.000   0.000   0.000   0.966  -0.000   0.000   0.000   0.000
  0.002   0.000   0.000   0.021   0.000   0.000   0.000  -2.088   0.000   0.000  -0.000  -0.000   0.733  -0.000  -0.000  -0.000
  0.000   0.005   0.000  -0.000  -0.006   0.000   0.000   0.000  -2.621  -0.000  -0.082   0.000  -0.000   1.156   0.000   0.077
  0.000   0.000   0.011   0.000   0.000  -0.066   0.000   0.000  -0.000  -1.935   0.000   0.000   0.000   0.000   0.719   0.000
  0.000   0.004   0.000  -0.000  -0.038   0.000   0.000  -0.000  -0.082   0.000  -2.362   0.000   0.000   0.077   0.000   0.906
  0.000   0.000   0.000   0.000   0.000   0.000   0.966  -0.000   0.000   0.000   0.000  -0.260   0.000   0.000   0.000   0.000
 -0.002   0.000   0.000  -0.018   0.000   0.000  -0.000   0.733  -0.000   0.000   0.000   0.000   0.002  -0.000   0.000  -0.000
  0.000  -0.005  -0.000   0.000  -0.008   0.000   0.000  -0.000   1.156   0.000   0.077   0.000  -0.000  -0.390   0.000  -0.080
  0.000   0.000  -0.012  -0.000   0.000   0.014   0.000  -0.000   0.000   0.719   0.000   0.000   0.000   0.000  -0.041   0.000
  0.000  -0.005  -0.000   0.000   0.014  -0.000   0.000  -0.000   0.077   0.000   0.906   0.000  -0.000  -0.080   0.000  -0.150
  0.000  -0.002   0.000   0.000  -0.018   0.000   0.000   0.000   0.006  -0.000  -0.046   0.000   0.000  -0.019   0.000   0.039
  0.000   0.000   0.000   0.000  -0.000  -0.000   0.000   0.000  -0.008   0.000   0.005   0.000   0.000   0.002   0.000  -0.001


------------------------ aborting loop because EDIFF is reached ----------------------------------------





 total charge

# of ion       s       p       d       tot
------------------------------------------
    1        0.349   6.325   6.021  12.695
    2        0.346   6.319   6.035  12.700
    3        0.345   6.318   6.011  12.674
    4        0.352   6.327   6.007  12.686
    5        0.350   6.325   6.014  12.689
    6        0.346   6.323   6.011  12.680
    7        0.349   6.325   6.021  12.695
    8        0.346   6.319   6.035  12.700
    9        0.345   6.318   6.011  12.674
   10        0.765   0.682   8.026   9.472
   11        0.769   0.678   8.032   9.479
   12        0.755   0.696   8.025   9.476
--------------------------------------------------
tot          5.414  58.956  78.249 142.618



 magnetization (x)

# of ion       s       p       d       tot
------------------------------------------
    1       -0.013  -0.006  -2.539  -2.558
    2        0.002  -0.012   2.647   2.637
    3        0.010   0.002   2.602   2.614
    4       -0.018  -0.021  -2.574  -2.613
    5        0.015   0.021   2.551   2.587
    6        0.002  -0.014   2.785   2.773
    7       -0.013  -0.006  -2.539  -2.558
    8        0.002  -0.012   2.647   2.637
    9        0.010   0.002   2.602   2.614
   10        0.008   0.014  -0.067  -0.045
   11       -0.009  -0.017   0.079   0.054
   12       -0.040  -0.097   0.410   0.273
--------------------------------------------------
tot         -0.044  -0.146   8.605   8.416
 
    CHARGE:  cpu time      0.1462: real time      0.1471
    FORLOC:  cpu time      0.0022: real time      0.0026
    FORNL :  cpu time      0.7304: real time      0.7355
    STRESS:  cpu time      4.3442: real time      4.3802
    FORCOR:  cpu time      0.0210: real time      0.0212
    FORHAR:  cpu time      0.0027: real time      0.0028
    MIXING:  cpu time      0.0048: real time      0.0049
    OFIELD:  cpu time      0.0015: real time      0.0017

  FORCE on cell =-STRESS in cart. coord.  units (eV):
  Direction    XX          YY          ZZ          XY          YZ          ZX
  --------------------------------------------------------------------------------------
  Alpha Z  1084.01356  1084.01356  1084.01356
  Ewald   -6007.10516 -6007.10516 -6034.74499     0.00000     0.00000    -0.00000
  Hartree  1897.75303  1897.75303  1873.03808    -0.00000    -0.00000    -0.00000
  E(xc)    -943.38386  -943.38386  -943.32531    -0.00000     0.00000    -0.00000
  Local    1048.76593  1048.76593  1107.97768    -0.00000     0.00000    -0.00000
  n-local  -215.27853  -229.61765  -223.04570    14.26777     0.13648     0.17570
  augment  1440.63027  1440.63027  1436.41421    -0.00000    -0.00000     0.00000
  Kinetic  1706.09932  1690.86153  1696.27400     2.89117     0.03296    -0.02851
  Fock        0.00000     0.00000     0.00000     0.00000     0.00000     0.00000
  -------------------------------------------------------------------------------------
  Total      -3.29388    -3.29388    -3.39847     0.00000     0.00000     0.00000
  in kB     -33.61384   -33.61384   -34.68126     0.00000     0.00000     0.00000
  external pressure =      -33.97 kB  Pullay stress =        0.00 kB


 VOLUME and BASIS-vectors are now :
 -----------------------------------------------------------------------------
  energy-cutoff  :      520.00
  volume of cell :      157.00
      direct lattice vectors                 reciprocal lattice vectors
     3.722104116  0.000000000  0.000000000     0.268665241  0.000000000  0.000000000
     0.000000000  3.722104116  0.000000000     0.000000000  0.268665241  0.000000000
     0.000000000  0.000000000 11.332418854     0.000000000  0.000000000  0.088242414

  length of vectors
     3.722104116  3.722104116 11.332418854     0.268665241  0.268665241  0.088242414


 FORCES acting on ions
    electron-ion (+dipol)            ewald-force                    non-local-force                 convergence-correction
 -----------------------------------------------------------------------------------------------
   -.489E-13 0.103E-11 0.322E+01   -.254E-13 0.208E-13 -.419E+01   -.967E-19 0.782E-18 0.954E+00   0.233E-13 -.284E-14 -.518E-02
   -.573E-13 0.102E-11 -.249E+02   -.123E-13 0.835E-14 0.252E+02   -.187E-19 -.182E-18 -.345E+00   0.234E-13 -.759E-14 0.687E-02
   -.526E-13 0.252E-11 -.487E+01   -.366E-15 0.225E-13 0.364E+01   -.309E-18 -.438E-18 0.123E+01   0.212E-13 0.399E-15 -.153E-02
   0.112E-11 -.399E-11 0.738E+02   -.664E-14 0.130E-13 -.713E+02   -.105E-17 -.131E-18 -.255E+01   -.171E-12 0.786E-13 -.563E-03
   0.114E-11 -.461E-11 0.522E+02   -.135E-13 0.100E-13 -.500E+02   0.592E-19 0.205E-18 -.227E+01   -.170E-12 0.756E-13 -.552E-04
   0.109E-11 -.425E-11 -.590E+02   -.309E-13 0.408E-13 0.592E+02   -.129E-18 -.677E-19 -.187E+00   -.186E-12 0.175E-13 0.795E-03
   0.108E-11 -.346E-12 0.322E+01   0.752E-14 0.670E-14 -.419E+01   -.782E-18 0.155E-18 0.954E+00   -.174E-12 0.403E-13 -.518E-02
   0.110E-11 0.820E-13 -.249E+02   -.115E-14 -.223E-14 0.252E+02   0.287E-18 -.893E-19 -.345E+00   -.202E-12 0.423E-13 0.687E-02
   0.109E-11 -.118E-13 -.487E+01   0.151E-13 -.236E-13 0.364E+01   -.723E-19 0.163E-18 0.123E+01   -.202E-12 0.300E-13 -.153E-02
   -.440E-13 -.177E-13 0.194E+02   0.132E-13 -.210E-13 -.198E+02   -.257E-18 0.136E-18 0.344E+00   0.477E-13 -.289E-14 -.223E-03
   -.489E-13 0.377E-13 -.449E+01   0.385E-13 -.217E-14 0.431E+01   0.607E-18 -.333E-18 0.185E+00   0.486E-13 -.267E-14 -.275E-03
   -.372E-13 -.279E-13 -.284E+02   0.303E-13 -.583E-13 0.281E+02   -.731E-18 -.711E-19 0.243E+00   0.448E-13 -.148E-14 0.300E-03
 -----------------------------------------------------------------------------------------------
   0.635E-11 -.856E-11 0.558E+00   0.145E-13 0.149E-13 0.284E-13   -.250E-17 0.128E-18 -.559E+00   -.896E-12 0.267E-12 0.272E-03
 
 
 POSITION                                       TOTAL-FORCE (eV/Angst)
 -----------------------------------------------------------------------------------
      0.00000      1.86105      1.88925         0.000000      0.000000     -0.013167
      0.00000      1.86105      5.65684         0.000000     -0.000000      0.000273
      0.00000      1.86105      9.44370         0.000000     -0.000000     -0.007410
      1.86105      1.86105      0.06120        -0.000000      0.000000      0.027352
      1.86105      1.86105      3.83623         0.000000     -0.000000      0.013029
      1.86105      1.86105      7.52329        -0.000000     -0.000000     -0.002924
      1.86105      0.00000      1.88925         0.000000      0.000000     -0.013167
      1.86105      0.00000      5.65684         0.000000      0.000000      0.000273
      1.86105      0.00000      9.44370         0.000000      0.000000     -0.007410
      0.00000      0.00000     11.31227         0.000000      0.000000     -0.007581
      0.00000      0.00000      3.73252         0.000000      0.000000      0.000853
      0.00000      0.00000      7.54941         0.000000      0.000000      0.009880
 -----------------------------------------------------------------------------------
    total drift:                                0.000000     -0.000000     -0.000225


--------------------------------------------------------------------------------------------------------



  FREE ENERGIE OF THE ION-ELECTRON SYSTEM (eV)
  ---------------------------------------------------
  free  energy   TOTEN  =       -93.32934025 eV

  energy  without entropy=      -93.32934025  energy(sigma->0) =      -93.32934025
 


--------------------------------------------------------------------------------------------------------


    POTLOK:  cpu time      0.0360: real time      0.0365


--------------------------------------------------------------------------------------------------------


     LOOP+:  cpu time    231.8305: real time    233.9087
 -----------------------------------------------------------------------------
|                                                                             |
|           W    W    AA    RRRRR   N    N  II  N    N   GGGG   !!!           |
|           W    W   A  A   R    R  NN   N  II  NN   N  G    G  !!!           |
|           W    W  A    A  R    R  N N  N  II  N N  N  G       !!!           |
|           W WW W  AAAAAA  RRRRR   N  N N  II  N  N N  G  GGG   !            |
|           WW  WW  A    A  R   R   N   NN  II  N   NN  G    G                |
|           W    W  A    A  R    R  N    N  II  N    N   GGGG   !!!           |
|                                                                             |
|     Tetrahedron method does not include variations of the Fermi             |
|     occupations, so forces and stress will be inaccurate. We suggest        |
|     using a different smearing scheme ISMEAR = 1 or 2 for metals in         |
|     relaxations.                                                            |
|                                                                             |
 -----------------------------------------------------------------------------

    4ORBIT:  cpu time      0.0000: real time      0.0000



 total charge

# of ion       s       p       d       tot
------------------------------------------
    1        0.349   6.325   6.021  12.695
    2        0.346   6.319   6.035  12.700
    3        0.345   6.318   6.011  12.674
    4        0.352   6.327   6.007  12.686
    5        0.350   6.325   6.014  12.689
    6        0.346   6.323   6.011  12.680
    7        0.349   6.325   6.021  12.695
    8        0.346   6.319   6.035  12.700
    9        0.345   6.318   6.011  12.674
   10        0.765   0.682   8.026   9.472
   11        0.769   0.678   8.032   9.479
   12        0.755   0.696   8.025   9.476
--------------------------------------------------
tot          5.414  58.956  78.249 142.618



 magnetization (x)

# of ion       s       p       d       tot
------------------------------------------
    1       -0.013  -0.006  -2.539  -2.558
    2        0.002  -0.012   2.647   2.637
    3        0.010   0.002   2.602   2.614
    4       -0.018  -0.021  -2.574  -2.613
    5        0.015   0.021   2.551   2.587
    6        0.002  -0.014   2.785   2.773
    7       -0.013  -0.006  -2.539  -2.558
    8        0.002  -0.012   2.647   2.637
    9        0.010   0.002   2.602   2.614
   10        0.008   0.014  -0.067  -0.045
   11       -0.009  -0.017   0.079   0.054
   12       -0.040  -0.097   0.410   0.273
--------------------------------------------------
tot         -0.044  -0.146   8.605   8.416
 
 BZINTS: Fermi energy:    9.744884;  156.000000 electrons
         Band energy:-0.164693E+04;  BLOECHL correction:   -0.020418

 total amount of memory used by VASP MPI-rank0   190020. kBytes
=======================================================================

   base      :      30000. kBytes
   nonl-proj :     103778. kBytes
   fftplans  :        888. kBytes
   grid      :       6813. kBytes
   one-center:        373. kBytes
   wavefun   :      48168. kBytes
 
  
  
 General timing and accounting informations for this job:
 ========================================================
  
                  Total CPU time used (sec):      251.147
                            User time (sec):      242.306
                          System time (sec):        8.840
                         Elapsed time (sec):      259.239
  
                   Maximum memory used (kb):      926772.
                   Average memory used (kb):          N/A
  
                          Minor page faults:       223379
                          Major page faults:          242
                 Voluntary context switches:         8189
