 vasp.6.4.3 19Mar24 (build Mar 26 2024 14:05:37) complex                        
  
 executed on             LinuxIFC date 2024.12.16  22:42:25
 running  128 mpi-ranks, on    1 nodes
 distrk:  each k-point on   32 cores,    4 groups
 distr:  one band on NCORE=   1 cores,   32 groups


--------------------------------------------------------------------------------------------------------


 INCAR:
   ALGO = All
   EDIFF = 1e-06
   EDIFFG = -0.01
   ENCUT = 520
   GGA = Pe
   IBRION = 2
   ISIF = 4
   ISMEAR = 1
   ISPIN = 2
   KPAR = 4
   LCHARG = True
   LORBIT = 11
   LREAL = False
   LWAVE = False
   MAGMOM = 1*-2.554 1*2.643 1*2.621 1*-2.61 1*2.599 1*2.777 1*-2.554 1*2.643 1*2.621 1*-0.046 1*0.058 1*0.275
   NELM = 200
   NSW = 100
   PREC = Accurate
   SIGMA = 0.2

 POTCAR:    PAW_PBE Fe_pv 02Aug2007               
 POTCAR:    PAW_PBE Pt 04Feb2005                  
 -----------------------------------------------------------------------------
|                                                                             |
|           W    W    AA    RRRRR   N    N  II  N    N   GGGG   !!!           |
|           W    W   A  A   R    R  NN   N  II  NN   N  G    G  !!!           |
|           W    W  A    A  R    R  N N  N  II  N N  N  G       !!!           |
|           W WW W  AAAAAA  RRRRR   N  N N  II  N  N N  G  GGG   !            |
|           WW  WW  A    A  R   R   N   NN  II  N   NN  G    G                |
|           W    W  A    A  R    R  N    N  II  N    N   GGGG   !!!           |
|                                                                             |
|     For optimal performance we recommend to set                             |
|       NCORE = 2 up to number-of-cores-per-socket                            |
|     NCORE specifies how many cores store one orbital (NPAR=cpu/NCORE).      |
|     This setting can greatly improve the performance of VASP for DFT.       |
|     The default, NCORE=1 might be grossly inefficient on modern             |
|     multi-core architectures or massively parallel machines. Do your        |
|     own testing! More info at https://www.vasp.at/wiki/index.php/NCORE      |
|     Unfortunately you need to use the default for GW and RPA                |
|     calculations (for HF NCORE is supported but not extensively tested      |
|     yet).                                                                   |
|                                                                             |
 -----------------------------------------------------------------------------

 POTCAR:    PAW_PBE Fe_pv 02Aug2007               
   SHA256 =  5d22e414b1f82158bf2c7ecb8b97b28fd0923e48cadc1c3bf74d524558f5dd32 Fe_pv/POTCAR          
   COPYR  = (c) Copyright 02Aug2007 Georg Kresse                                                    
   COPYR  = This file is part of the software VASP. Any use, copying, and all other rights are regul
   COPYR  = If you do not have a valid VASP license, you may not use, copy or distribute this file. 
   VRHFIN =Fe:  3pd7s1                                                                              
   LEXCH  = PE                                                                                      
   EATOM  =  2457.4239 eV,  180.6156 Ry                                                             
                                                                                                    
   TITEL  = PAW_PBE Fe_pv 02Aug2007                                                                 
   LULTRA =        F    use ultrasoft PP ?                                                          
   IUNSCR =        1    unscreen: 0-lin 1-nonlin 2-no                                               
   RPACOR =    1.750    partial core radius                                                         
   POMASS =   55.847; ZVAL   =   14.000    mass and valenz                                          
   RCORE  =    2.200    outmost cutoff radius                                                       
   RWIGS  =    2.200; RWIGS  =    1.164    wigner-seitz radius (au A)                               
   ENMAX  =  293.238; ENMIN  =  219.928 eV                                                          
   ICORE  =        3    local potential                                                             
   LCOR   =        T    correct aug charges                                                         
   LPAW   =        T    paw PP                                                                      
   EAUG   =  578.342                                                                                
   DEXC   =    0.000                                                                                
   RMAX   =    2.249    core radius for proj-oper                                                   
   RAUG   =    1.300    factor for augmentation sphere                                              
   RDEP   =    2.296    radius for radial grids                                                     
   RDEPT  =    1.766    core radius for aug-charge                                                  
                                                                                                    
   Atomic configuration                                                                             
    8 entries                                                                                       
     n  l   j            E        occ.                                                              
     1  0  0.50     -6993.8440   2.0000                                                             
     2  0  0.50      -814.6047   2.0000                                                             
     2  1  1.50      -693.3689   6.0000                                                             
     3  0  0.50       -89.4732   2.0000                                                             
     3  1  1.50       -55.6373   6.0000                                                             
     3  2  2.50        -3.8151   7.0000                                                             
     4  0  0.50        -4.2551   1.0000                                                             
     4  3  2.50        -1.3606   0.0000                                                             
   Description                                                                                      
     l       E           TYP  RCUT    TYP  RCUT                                                     
     1    -55.6372668     23  2.000                                                                 
     1     -5.4423304     23  2.000                                                                 
     2     -3.8151096     23  2.200                                                                 
     2     -5.1756922     23  2.200                                                                 
     0     -4.2550951     23  2.200                                                                 
     0     27.2116520     23  2.200                                                                 
     3     -1.3605826     23  2.200                                                                 
  local pseudopotential read in
  partial core-charges read in
  partial kinetic energy density read in
  atomic valenz-charges read in
  non local Contribution for L=           1  read in
    real space projection operators read in
  non local Contribution for L=           1  read in
    real space projection operators read in
  non local Contribution for L=           2  read in
    real space projection operators read in
  non local Contribution for L=           2  read in
    real space projection operators read in
  non local Contribution for L=           0  read in
    real space projection operators read in
  non local Contribution for L=           0  read in
    real space projection operators read in
    PAW grid and wavefunctions read in
 
   number of l-projection  operators is LMAX  =           6
   number of lm-projection operators is LMMAX =          18
 
 POTCAR:    PAW_PBE Pt 04Feb2005                  
   SHA256 =  3ed90460adef76debcff1cfb73ee1349b515b1a3db03439735b44de3a8db7dc8 Pt/POTCAR             
   COPYR  = (c) Copyright 04Feb2005 Georg Kresse                                                    
   COPYR  = This file is part of the software VASP. Any use, copying, and all other rights are regul
   COPYR  = If you do not have a valid VASP license, you may not use, copy or distribute this file. 
   VRHFIN =Pt: s1d9                                                                                 
   LEXCH  = PE                                                                                      
   EATOM  =   729.1176 eV,   53.5886 Ry                                                             
                                                                                                    
   TITEL  = PAW_PBE Pt 04Feb2005                                                                    
   LULTRA =        F    use ultrasoft PP ?                                                          
   IUNSCR =        1    unscreen: 0-lin 1-nonlin 2-no                                               
   RPACOR =    2.330    partial core radius                                                         
   POMASS =  195.080; ZVAL   =   10.000    mass and valenz                                          
   RCORE  =    2.600    outmost cutoff radius                                                       
   RWIGS  =    2.750; RWIGS  =    1.455    wigner-seitz radius (au A)                               
   ENMAX  =  230.283; ENMIN  =  172.712 eV                                                          
   ICORE  =        3    local potential                                                             
   LCOR   =        T    correct aug charges                                                         
   LPAW   =        T    paw PP                                                                      
   EAUG   =  358.966                                                                                
   DEXC   =    0.000                                                                                
   RMAX   =    2.658    core radius for proj-oper                                                   
   RAUG   =    1.300    factor for augmentation sphere                                              
   RDEP   =    2.761    radius for radial grids                                                     
   RDEPT  =    2.203    core radius for aug-charge                                                  
                                                                                                    
   Atomic configuration                                                                             
   16 entries                                                                                       
     n  l   j            E        occ.                                                              
     1  0  0.50    -78401.1885   2.0000                                                             
     2  0  0.50    -13770.7750   2.0000                                                             
     2  1  1.50    -11931.0468   6.0000                                                             
     3  0  0.50     -3234.7234   2.0000                                                             
     3  1  1.50     -2699.2216   6.0000                                                             
     3  2  2.50     -2119.5714  10.0000                                                             
     4  0  0.50      -695.1528   2.0000                                                             
     4  1  1.50      -519.6034   6.0000                                                             
     4  2  2.50      -306.6786  10.0000                                                             
     4  3  3.50       -70.1041  14.0000                                                             
     5  0  0.50      -101.7747   2.0000                                                             
     5  1  1.50       -55.9873   6.0000                                                             
     5  2  2.50        -6.1423   9.0000                                                             
     6  0  0.50        -5.6573   1.0000                                                             
     6  1  1.50        -6.8029   0.0000                                                             
     5  3  2.50        -1.3606   0.0000                                                             
   Description                                                                                      
     l       E           TYP  RCUT    TYP  RCUT                                                     
     2     -6.1423404     23  2.500                                                                 
     2     -7.5029230     23  2.500                                                                 
     0     -5.6573207     23  2.500                                                                 
     0      0.7416693     23  2.500                                                                 
     1     -2.7211652     23  2.600                                                                 
     1     20.4087390     23  2.600                                                                 
     3     -1.3605826     23  2.500                                                                 
  local pseudopotential read in
  partial core-charges read in
  partial kinetic energy density read in
  atomic valenz-charges read in
  non local Contribution for L=           2  read in
    real space projection operators read in
  non local Contribution for L=           2  read in
    real space projection operators read in
  non local Contribution for L=           0  read in
    real space projection operators read in
  non local Contribution for L=           0  read in
    real space projection operators read in
  non local Contribution for L=           1  read in
    real space projection operators read in
  non local Contribution for L=           1  read in
    real space projection operators read in
    PAW grid and wavefunctions read in
 
   number of l-projection  operators is LMAX  =           6
   number of lm-projection operators is LMMAX =          18
 
  PAW_PBE Fe_pv 02Aug2007               :
 energy of atom  1       EATOM=-2457.4239
 kinetic energy error for atom=    0.0062 (will be added to EATOM!!)
  PAW_PBE Pt 04Feb2005                  :
 energy of atom  2       EATOM= -729.1176
 kinetic energy error for atom=    0.0032 (will be added to EATOM!!)
 
 
 POSCAR: Fe9 Pt3
  positions in direct lattice
  velocities in cartesian coordinates


 exchange-correlation table for PE
   RHO(1)=    0.500       N(1)  =     2000
   RHO(2)=  100.500       N(2)  =     4000
 


--------------------------------------------------------------------------------------------------------


 ion  position               nearest neighbor table
   1  0.000  0.500  0.167-   4 2.61   4 2.61  11 2.62  11 2.62   7 2.63   7 2.63   7 2.63   7 2.63
                            10 2.67  10 2.67   5 2.69   5 2.69
   2  0.000  0.500  0.499-   5 2.60   5 2.60   8 2.63   8 2.63   8 2.63   8 2.63   6 2.64   6 2.64
                            12 2.65  12 2.65  11 2.68  11 2.68
   3  0.000  0.500  0.833-   9 2.63   9 2.63   9 2.63   9 2.63  10 2.64  10 2.64  12 2.66  12 2.66
                             6 2.67   6 2.67   4 2.70   4 2.70
   4  0.500  0.500  0.005-   1 2.61   7 2.61   7 2.61   1 2.61  10 2.63  10 2.63  10 2.63  10 2.63
                             9 2.70   3 2.70   9 2.70   3 2.70
   5  0.500  0.500  0.339-   2 2.60   8 2.60   8 2.60   2 2.60  11 2.63  11 2.63  11 2.63  11 2.63
                             1 2.69   7 2.69   1 2.69   7 2.69
   6  0.500  0.500  0.664-  12 2.63  12 2.63  12 2.63  12 2.63   8 2.64   2 2.64   2 2.64   8 2.64
                             9 2.67   3 2.67   9 2.67   3 2.67
   7  0.500  0.000  0.167-   4 2.61   4 2.61  11 2.62  11 2.62   1 2.63   1 2.63   1 2.63   1 2.63
                            10 2.67  10 2.67   5 2.69   5 2.69
   8  0.500  0.000  0.499-   5 2.60   5 2.60   2 2.63   2 2.63   2 2.63   2 2.63   6 2.64   6 2.64
                            12 2.65  12 2.65  11 2.68  11 2.68
   9  0.500  0.000  0.833-   3 2.63   3 2.63   3 2.63   3 2.63  10 2.64  10 2.64  12 2.66  12 2.66
                             6 2.67   6 2.67   4 2.70   4 2.70
  10  0.000  0.000  0.998-   4 2.63   4 2.63   4 2.63   4 2.63   3 2.64   9 2.64   9 2.64   3 2.64
                             1 2.67   7 2.67   7 2.67   1 2.67
  11  0.000  0.000  0.329-   1 2.62   7 2.62   1 2.62   7 2.62   5 2.63   5 2.63   5 2.63   5 2.63
                             2 2.68   2 2.68   8 2.68   8 2.68
  12  0.000  0.000  0.666-   6 2.63   6 2.63   6 2.63   6 2.63   2 2.65   8 2.65   8 2.65   2 2.65
                             3 2.66   3 2.66   9 2.66   9 2.66
 
  LATTYP: Found a simple tetragonal cell.
 ALAT       =     3.7221041161
 C/A-ratio  =     3.0446270444
  
  Lattice vectors:
  
 A1 = (   3.7221041161,   0.0000000000,   0.0000000000)
 A2 = (   0.0000000000,   3.7221041161,   0.0000000000)
 A3 = (   0.0000000000,   0.0000000000,  11.3324188542)


Analysis of symmetry for initial positions (statically):
=====================================================================
 Subroutine PRICEL returns:
 Original cell was already a primitive cell.
 

 Routine SETGRP: Setting up the symmetry group for a 
 simple tetragonal supercell.


 Subroutine GETGRP returns: Found  8 space group operations
 (whereof  8 operations were pure point group operations)
 out of a pool of 16 trial point group operations.


The static configuration has the point symmetry C_4v.


Analysis of symmetry for dynamics (positions and initial velocities):
=====================================================================
 Subroutine PRICEL returns:
 Original cell was already a primitive cell.
 

 Routine SETGRP: Setting up the symmetry group for a 
 simple tetragonal supercell.


 Subroutine GETGRP returns: Found  8 space group operations
 (whereof  8 operations were pure point group operations)
 out of a pool of 16 trial point group operations.


The dynamic configuration has the point symmetry C_4v.


Analysis of structural, dynamic, and magnetic symmetry:
=====================================================================
 Subroutine PRICEL returns:
 Original cell was already a primitive cell.
 

 Routine SETGRP: Setting up the symmetry group for a 
 simple tetragonal supercell.


 Subroutine GETGRP returns: Found  8 space group operations
 (whereof  8 operations were pure point group operations)
 out of a pool of 16 trial point group operations.


The overall configuration has the point symmetry C_4v.


 Subroutine INISYM returns: Found  8 space group operations
 (whereof  8 operations are pure point group operations),
 and found     1 'primitive' translations


----------------------------------------------------------------------------------------

                                     Primitive cell                                     

  volume of cell :     157.0000

  direct lattice vectors                    reciprocal lattice vectors
     3.722104116  0.000000000  0.000000000     0.268665241  0.000000000  0.000000000
     0.000000000  3.722104116  0.000000000     0.000000000  0.268665241  0.000000000
     0.000000000  0.000000000 11.332418854     0.000000000  0.000000000  0.088242414

  length of vectors
     3.722104116  3.722104116 11.332418854     0.268665241  0.268665241  0.088242414

  position of ions in fractional coordinates (direct lattice)
     0.000000000  0.500000000  0.166712317
     0.000000000  0.500000000  0.499173116
     0.000000000  0.500000000  0.833335082
     0.500000000  0.500000000  0.005400706
     0.500000000  0.500000000  0.338517964
     0.500000000  0.500000000  0.663873646
     0.500000000  0.000000000  0.166712317
     0.500000000  0.000000000  0.499173116
     0.500000000  0.000000000  0.833335082
     0.000000000  0.000000000  0.998221744
     0.000000000  0.000000000  0.329366486
     0.000000000  0.000000000  0.666178423

  ion indices of the primitive-cell ions
   primitive index   ion index
                 1           1
                 2           2
                 3           3
                 4           4
                 5           5
                 6           6
                 7           7
                 8           8
                 9           9
                10          10
                11          11
                12          12

----------------------------------------------------------------------------------------

 
 
 KPOINTS: pymatgen with grid density = 8800 / numb

Automatic generation of k-mesh.
 Grid dimensions read from file:
 generate k-points for:   13   13    4

 Generating k-lattice:

  Cartesian coordinates                     Fractional coordinates (reciprocal lattice)
     0.020666557  0.000000000  0.000000000     0.076923077  0.000000000  0.000000000
     0.000000000  0.020666557  0.000000000     0.000000000  0.076923077  0.000000000
     0.000000000  0.000000000  0.022060604     0.000000000  0.000000000  0.250000000

  Length of vectors
     0.020666557  0.020666557  0.022060604

  Shift w.r.t. Gamma in fractional coordinates (k-lattice)
     0.000000000  0.000000000  0.000000000

 
 Subroutine IBZKPT returns following result:
 ===========================================
 
 Found     84 irreducible k-points:
 
 Following reciprocal coordinates:
            Coordinates               Weight
  0.000000  0.000000  0.000000      1.000000
  0.076923  0.000000  0.000000      4.000000
  0.153846  0.000000  0.000000      4.000000
  0.230769  0.000000  0.000000      4.000000
  0.307692  0.000000  0.000000      4.000000
  0.384615  0.000000  0.000000      4.000000
  0.461538  0.000000  0.000000      4.000000
  0.076923  0.076923  0.000000      4.000000
  0.153846  0.076923  0.000000      8.000000
  0.230769  0.076923  0.000000      8.000000
  0.307692  0.076923  0.000000      8.000000
  0.384615  0.076923  0.000000      8.000000
  0.461538  0.076923  0.000000      8.000000
  0.153846  0.153846  0.000000      4.000000
  0.230769  0.153846  0.000000      8.000000
  0.307692  0.153846  0.000000      8.000000
  0.384615  0.153846  0.000000      8.000000
  0.461538  0.153846  0.000000      8.000000
  0.230769  0.230769  0.000000      4.000000
  0.307692  0.230769  0.000000      8.000000
  0.384615  0.230769  0.000000      8.000000
  0.461538  0.230769  0.000000      8.000000
  0.307692  0.307692  0.000000      4.000000
  0.384615  0.307692  0.000000      8.000000
  0.461538  0.307692  0.000000      8.000000
  0.384615  0.384615  0.000000      4.000000
  0.461538  0.384615  0.000000      8.000000
  0.461538  0.461538  0.000000      4.000000
  0.000000  0.000000  0.250000      2.000000
  0.076923  0.000000  0.250000      8.000000
  0.153846  0.000000  0.250000      8.000000
  0.230769  0.000000  0.250000      8.000000
  0.307692  0.000000  0.250000      8.000000
  0.384615  0.000000  0.250000      8.000000
  0.461538  0.000000  0.250000      8.000000
  0.076923  0.076923  0.250000      8.000000
  0.153846  0.076923  0.250000     16.000000
  0.230769  0.076923  0.250000     16.000000
  0.307692  0.076923  0.250000     16.000000
  0.384615  0.076923  0.250000     16.000000
  0.461538  0.076923  0.250000     16.000000
  0.153846  0.153846  0.250000      8.000000
  0.230769  0.153846  0.250000     16.000000
  0.307692  0.153846  0.250000     16.000000
  0.384615  0.153846  0.250000     16.000000
  0.461538  0.153846  0.250000     16.000000
  0.230769  0.230769  0.250000      8.000000
  0.307692  0.230769  0.250000     16.000000
  0.384615  0.230769  0.250000     16.000000
  0.461538  0.230769  0.250000     16.000000
  0.307692  0.307692  0.250000      8.000000
  0.384615  0.307692  0.250000     16.000000
  0.461538  0.307692  0.250000     16.000000
  0.384615  0.384615  0.250000      8.000000
  0.461538  0.384615  0.250000     16.000000
  0.461538  0.461538  0.250000      8.000000
  0.000000  0.000000  0.500000      1.000000
  0.076923  0.000000  0.500000      4.000000
  0.153846  0.000000  0.500000      4.000000
  0.230769  0.000000  0.500000      4.000000
  0.307692  0.000000  0.500000      4.000000
  0.384615  0.000000  0.500000      4.000000
  0.461538  0.000000  0.500000      4.000000
  0.076923  0.076923  0.500000      4.000000
  0.153846  0.076923  0.500000      8.000000
  0.230769  0.076923  0.500000      8.000000
  0.307692  0.076923  0.500000      8.000000
  0.384615  0.076923  0.500000      8.000000
  0.461538  0.076923  0.500000      8.000000
  0.153846  0.153846  0.500000      4.000000
  0.230769  0.153846  0.500000      8.000000
  0.307692  0.153846  0.500000      8.000000
  0.384615  0.153846  0.500000      8.000000
  0.461538  0.153846  0.500000      8.000000
  0.230769  0.230769  0.500000      4.000000
  0.307692  0.230769  0.500000      8.000000
  0.384615  0.230769  0.500000      8.000000
  0.461538  0.230769  0.500000      8.000000
  0.307692  0.307692  0.500000      4.000000
  0.384615  0.307692  0.500000      8.000000
  0.461538  0.307692  0.500000      8.000000
  0.384615  0.384615  0.500000      4.000000
  0.461538  0.384615  0.500000      8.000000
  0.461538  0.461538  0.500000      4.000000
 
 Following cartesian coordinates:
            Coordinates               Weight
  0.000000  0.000000  0.000000      1.000000
  0.020667  0.000000  0.000000      4.000000
  0.041333  0.000000  0.000000      4.000000
  0.062000  0.000000  0.000000      4.000000
  0.082666  0.000000  0.000000      4.000000
  0.103333  0.000000  0.000000      4.000000
  0.123999  0.000000  0.000000      4.000000
  0.020667  0.020667  0.000000      4.000000
  0.041333  0.020667  0.000000      8.000000
  0.062000  0.020667  0.000000      8.000000
  0.082666  0.020667  0.000000      8.000000
  0.103333  0.020667  0.000000      8.000000
  0.123999  0.020667  0.000000      8.000000
  0.041333  0.041333  0.000000      4.000000
  0.062000  0.041333  0.000000      8.000000
  0.082666  0.041333  0.000000      8.000000
  0.103333  0.041333  0.000000      8.000000
  0.123999  0.041333  0.000000      8.000000
  0.062000  0.062000  0.000000      4.000000
  0.082666  0.062000  0.000000      8.000000
  0.103333  0.062000  0.000000      8.000000
  0.123999  0.062000  0.000000      8.000000
  0.082666  0.082666  0.000000      4.000000
  0.103333  0.082666  0.000000      8.000000
  0.123999  0.082666  0.000000      8.000000
  0.103333  0.103333  0.000000      4.000000
  0.123999  0.103333  0.000000      8.000000
  0.123999  0.123999  0.000000      4.000000
  0.000000  0.000000  0.022061      2.000000
  0.020667  0.000000  0.022061      8.000000
  0.041333  0.000000  0.022061      8.000000
  0.062000  0.000000  0.022061      8.000000
  0.082666  0.000000  0.022061      8.000000
  0.103333  0.000000  0.022061      8.000000
  0.123999  0.000000  0.022061      8.000000
  0.020667  0.020667  0.022061      8.000000
  0.041333  0.020667  0.022061     16.000000
  0.062000  0.020667  0.022061     16.000000
  0.082666  0.020667  0.022061     16.000000
  0.103333  0.020667  0.022061     16.000000
  0.123999  0.020667  0.022061     16.000000
  0.041333  0.041333  0.022061      8.000000
  0.062000  0.041333  0.022061     16.000000
  0.082666  0.041333  0.022061     16.000000
  0.103333  0.041333  0.022061     16.000000
  0.123999  0.041333  0.022061     16.000000
  0.062000  0.062000  0.022061      8.000000
  0.082666  0.062000  0.022061     16.000000
  0.103333  0.062000  0.022061     16.000000
  0.123999  0.062000  0.022061     16.000000
  0.082666  0.082666  0.022061      8.000000
  0.103333  0.082666  0.022061     16.000000
  0.123999  0.082666  0.022061     16.000000
  0.103333  0.103333  0.022061      8.000000
  0.123999  0.103333  0.022061     16.000000
  0.123999  0.123999  0.022061      8.000000
  0.000000  0.000000  0.044121      1.000000
  0.020667  0.000000  0.044121      4.000000
  0.041333  0.000000  0.044121      4.000000
  0.062000  0.000000  0.044121      4.000000
  0.082666  0.000000  0.044121      4.000000
  0.103333  0.000000  0.044121      4.000000
  0.123999  0.000000  0.044121      4.000000
  0.020667  0.020667  0.044121      4.000000
  0.041333  0.020667  0.044121      8.000000
  0.062000  0.020667  0.044121      8.000000
  0.082666  0.020667  0.044121      8.000000
  0.103333  0.020667  0.044121      8.000000
  0.123999  0.020667  0.044121      8.000000
  0.041333  0.041333  0.044121      4.000000
  0.062000  0.041333  0.044121      8.000000
  0.082666  0.041333  0.044121      8.000000
  0.103333  0.041333  0.044121      8.000000
  0.123999  0.041333  0.044121      8.000000
  0.062000  0.062000  0.044121      4.000000
  0.082666  0.062000  0.044121      8.000000
  0.103333  0.062000  0.044121      8.000000
  0.123999  0.062000  0.044121      8.000000
  0.082666  0.082666  0.044121      4.000000
  0.103333  0.082666  0.044121      8.000000
  0.123999  0.082666  0.044121      8.000000
  0.103333  0.103333  0.044121      4.000000
  0.123999  0.103333  0.044121      8.000000
  0.123999  0.123999  0.044121      4.000000
 


--------------------------------------------------------------------------------------------------------




 Dimension of arrays:
   k-points           NKPTS =     84   k-points in BZ     NKDIM =     84   number of bands    NBANDS=    128
   number of dos      NEDOS =    301   number of ions     NIONS =     12
   non local maximal  LDIM  =      6   non local SUM 2l+1 LMDIM =     18
   total plane-waves  NPLWV =  65856
   max r-space proj   IRMAX =      1   max aug-charges    IRDMAX=  25602
   dimension x,y,z NGX =    28 NGY =   28 NGZ =   84
   dimension x,y,z NGXF=    56 NGYF=   56 NGZF=  168
   support grid    NGXF=    56 NGYF=   56 NGZF=  168
   ions per type =               9   3
   NGX,Y,Z   is equivalent  to a cutoff of  12.51, 12.51, 12.32 a.u.
   NGXF,Y,Z  is equivalent  to a cutoff of  25.01, 25.01, 24.65 a.u.

 SYSTEM =  unknown system                          
 POSCAR =  Fe9 Pt3                                 

 Startparameter for this run:
   NWRITE =      2    write-flag & timer
   PREC   = accura    normal or accurate (medium, high low for compatibility)
   ISTART =      0    job   : 0-new  1-cont  2-samecut
   ICHARG =      2    charge: 1-file 2-atom 10-const
   ISPIN  =      2    spin polarized calculation?
   LNONCOLLINEAR =      F non collinear calculations
   LSORBIT =      F    spin-orbit coupling
   INIWAV =      1    electr: 0-lowe 1-rand  2-diag
   LASPH  =      F    aspherical Exc in radial PAW
 Electronic Relaxation 1
   ENCUT  =  520.0 eV  38.22 Ry    6.18 a.u.   6.92  6.92 21.07*2*pi/ulx,y,z
   ENINI  =  520.0     initial cutoff
   ENAUG  =  578.3 eV  augmentation charge cutoff
   NELM   =    200;   NELMIN=  2; NELMDL=  0     # of ELM steps 
   EDIFF  = 0.1E-05   stopping-criterion for ELM
   LREAL  =      F    real-space projection
   NLSPLINE    = F    spline interpolate recip. space projectors
   LCOMPAT=      F    compatible to vasp.4.4
   GGA_COMPAT  = T    GGA compatible to vasp.4.4-vasp.4.6
   LMAXPAW     = -100 max onsite density
   LMAXMIX     =    2 max onsite mixed and CHGCAR
   VOSKOWN=      0    Vosko Wilk Nusair interpolation
   ROPT   =    0.00000   0.00000
 Ionic relaxation
   EDIFFG = -.1E-01   stopping-criterion for IOM
   NSW    =    100    number of steps for IOM
   NBLOCK =      1;   KBLOCK =    100    inner block; outer block 
   IBRION =      2    ionic relax: 0-MD 1-quasi-New 2-CG
   NFREE  =      1    steps in history (QN), initial steepest desc. (CG)
   ISIF   =      4    stress and relaxation
   IWAVPR =     11    prediction:  0-non 1-charg 2-wave 3-comb
   ISYM   =      2    0-nonsym 1-usesym 2-fastsym
   LCORR  =      T    Harris-Foulkes like correction to forces

   POTIM  = 0.5000    time-step for ionic-motion
   TEIN   =    0.0    initial temperature
   TEBEG  =    0.0;   TEEND  =   0.0 temperature during run
   SMASS  =  -3.00    Nose mass-parameter (am)
   estimated Nose-frequenzy (Omega)   =  0.10E-29 period in steps = 0.13E+47 mass=  -0.317E-27a.u.
   SCALEE = 1.0000    scale energy and forces
   NPACO  =    256;   APACO  = 10.0  distance and # of slots for P.C.
   PSTRESS=    0.0 pullay stress

  Mass of Ions in am
   POMASS =  55.85195.08
  Ionic Valenz
   ZVAL   =  14.00 10.00
  Atomic Wigner-Seitz radii
   RWIGS  =  -1.00 -1.00
  virtual crystal weights 
   VCA    =   1.00  1.00
   NELECT =     156.0000    total number of electrons
   NUPDOWN=      -1.0000    fix difference up-down

 DOS related values:
   EMIN   =  10.00;   EMAX   =-10.00  energy-range for DOS
   EFERMI =   0.00;   METHOD = LEGACY      
   ISMEAR =     1;   SIGMA  =   0.20  broadening in eV -4-tet -1-fermi 0-gaus

 Electronic relaxation 2 (details)
   IALGO  =     58    algorithm
   LDIAG  =      T    sub-space diagonalisation (order eigenvalues)
   LSUBROT=      F    optimize rotation matrix (better conditioning)
   TURBO    =      0    0=normal 1=particle mesh
   IRESTART =      0    0=no restart 2=restart with 2 vectors
   NREBOOT  =      0    no. of reboots
   NMIN     =      0    reboot dimension
   EREF     =   0.00    reference energy to select bands
   IMIX   =      4    mixing-type and parameters
     AMIX     =   0.40;   BMIX     =  1.00
     AMIX_MAG =   1.60;   BMIX_MAG =  1.00
     AMIN     =   0.10
     WC   =   100.;   INIMIX=   1;  MIXPRE=   1;  MAXMIX= -45

 Intra band minimization:
   WEIMIN = 0.0010     energy-eigenvalue tresh-hold
   EBREAK =  0.20E-08  absolut break condition
   DEPER  =   0.30     relativ break condition  

   TIME   =   0.40     timestep for ELM

  volume/ion in A,a.u.               =      13.08        88.29
  Fermi-wavevector in a.u.,A,eV,Ry     =   1.633615  3.087085 36.309857  2.668699
  Thomas-Fermi vector in A             =   2.725391
 
 Write flags
   LWAVE        =      F    write WAVECAR
   LDOWNSAMPLE  =      F    k-point downsampling of WAVECAR
   LCHARG       =      T    write CHGCAR
   LVTOT        =      F    write LOCPOT, total local potential
   LVHAR        =      F    write LOCPOT, Hartree potential only
   WRT_POTENTIAL= false  ! write potential to hdf5 file
   LELF         =      F    write electronic localiz. function (ELF)
   LORBIT       =     11    0 simple, 1 ext, 2 COOP (PROOUT), +10 PAW based schemes


 Dipole corrections
   LMONO      =      F    monopole corrections only (constant potential shift)
   LDIPOL     =      F    correct potential (dipole corrections)
   IDIPOL     =      0    1-x, 2-y, 3-z, 4-all directions 
   EPSILON    =  1.0000000 bulk dielectric constant
   LVACPOTAV  =      F  vacuum potentials using an averaging scheme for the charge density
   VACPOTFLAT =  0.1000000 required flatness to determine vacuum potential
 Exchange correlation treatment:
   GGA     = PE    functional components
   XC_C    = 1    coefficients multiplying the functional components
   LIBXC   =     F    Libxc                    
   VOSKOWN =     0    Vosko Wilk Nusair interpolation
   LHFCALC =     F    Hartree Fock is set to
   LHFONE  =     F    Hartree Fock one center treatment
   AEXX    =    0.0000 exact exchange contribution

 Parameters of functionals:
   PE:
     No parameter
 
 Van der Waals corrections
   IVDW    =     0    specifies the selected vdW correction

 Linear response parameters
   LEPSILON=     F    determine dielectric tensor
   LRPA    =     F    only Hartree local field effects (RPA)
   LNABLA  =     F    use nabla operator in PAW spheres
   LVEL    =     F    velocity operator in full k-point grid
   CSHIFT  =0.1000    complex shift for real part using Kramers Kronig
   OMEGAMAX=  -1.0    maximum frequency
   DEG_THRESHOLD= 0.2000000E-02 threshold for treating states as degnerate
   RTIME   =   -0.100 relaxation time in fs
  (WPLASMAI=    0.000 imaginary part of plasma frequency in eV, 0.658/RTIME)
   DFIELD  = 0.0000000 0.0000000 0.0000000 field for delta impulse in time
 
  Optional k-point grid parameters
   LKPOINTS_OPT  =     F    use optional k-point grid
   KPOINTS_OPT_MODE=     1    mode for optional k-point grid
 
 Orbital magnetization related:
   ORBITALMAG=     F  switch on orbital magnetization
   LCHIMAG   =     F  perturbation theory with respect to B field
   DQ        =  0.001000  dq finite difference perturbation B field
   LLRAUG    =     F  two centre corrections for induced B field
   LBONE     =     F  B-component reconstruction in AE one-centre
   LVGVCALC  =     T  calculate vGv susceptibility
   LVGVAPPL  =     F  apply vGv susceptibility instead of pGv for G=0

 Random number generation:
   RANDOM_GENERATOR = DEFAULT
   PCG_SEED         = not used


--------------------------------------------------------------------------------------------------------


 conjugate gradient relaxation of ions
 charge density and potential will be updated during run
 spin polarized calculation
 Conjugate gradient for all bands (Freysoldt, et al. PRB 79, 241103 (2009))
 preconditioned conjugated gradient                                        
 perform sub-space diagonalisation
    before iterative eigenvector-optimisation
 modified Broyden-mixing scheme, WC =      100.0
 initial mixing is a Kerker type mixing with AMIX =  0.4000 and BMIX =      1.0000
 Hartree-type preconditioning will be used
 using additional bands           50
 reciprocal scheme for non local part
 use partial core corrections
 no Harris-corrections to forces 
 use gradient corrections 
 use of overlap-Matrix (Vanderbilt PP)
 Methfessel and Paxton  Order N= 1 SIGMA  =   0.20


--------------------------------------------------------------------------------------------------------


  energy-cutoff  :      520.00
  volume of cell :      157.00
      direct lattice vectors                 reciprocal lattice vectors
     3.722104116  0.000000000  0.000000000     0.268665241  0.000000000  0.000000000
     0.000000000  3.722104116  0.000000000     0.000000000  0.268665241  0.000000000
     0.000000000  0.000000000 11.332418854     0.000000000  0.000000000  0.088242414

  length of vectors
     3.722104116  3.722104116 11.332418854     0.268665241  0.268665241  0.088242414


 
 k-points in units of 2pi/SCALE and weight: pymatgen with grid density = 8800 / numb
   0.00000000  0.00000000  0.00000000       0.001
   0.02066656  0.00000000  0.00000000       0.006
   0.04133311  0.00000000  0.00000000       0.006
   0.06199967  0.00000000  0.00000000       0.006
   0.08266623  0.00000000  0.00000000       0.006
   0.10333279  0.00000000  0.00000000       0.006
   0.12399934  0.00000000  0.00000000       0.006
   0.02066656  0.02066656  0.00000000       0.006
   0.04133311  0.02066656  0.00000000       0.012
   0.06199967  0.02066656  0.00000000       0.012
   0.08266623  0.02066656  0.00000000       0.012
   0.10333279  0.02066656  0.00000000       0.012
   0.12399934  0.02066656  0.00000000       0.012
   0.04133311  0.04133311  0.00000000       0.006
   0.06199967  0.04133311  0.00000000       0.012
   0.08266623  0.04133311  0.00000000       0.012
   0.10333279  0.04133311  0.00000000       0.012
   0.12399934  0.04133311  0.00000000       0.012
   0.06199967  0.06199967  0.00000000       0.006
   0.08266623  0.06199967  0.00000000       0.012
   0.10333279  0.06199967  0.00000000       0.012
   0.12399934  0.06199967  0.00000000       0.012
   0.08266623  0.08266623  0.00000000       0.006
   0.10333279  0.08266623  0.00000000       0.012
   0.12399934  0.08266623  0.00000000       0.012
   0.10333279  0.10333279  0.00000000       0.006
   0.12399934  0.10333279  0.00000000       0.012
   0.12399934  0.12399934  0.00000000       0.006
   0.00000000  0.00000000  0.02206060       0.003
   0.02066656  0.00000000  0.02206060       0.012
   0.04133311  0.00000000  0.02206060       0.012
   0.06199967  0.00000000  0.02206060       0.012
   0.08266623  0.00000000  0.02206060       0.012
   0.10333279  0.00000000  0.02206060       0.012
   0.12399934  0.00000000  0.02206060       0.012
   0.02066656  0.02066656  0.02206060       0.012
   0.04133311  0.02066656  0.02206060       0.024
   0.06199967  0.02066656  0.02206060       0.024
   0.08266623  0.02066656  0.02206060       0.024
   0.10333279  0.02066656  0.02206060       0.024
   0.12399934  0.02066656  0.02206060       0.024
   0.04133311  0.04133311  0.02206060       0.012
   0.06199967  0.04133311  0.02206060       0.024
   0.08266623  0.04133311  0.02206060       0.024
   0.10333279  0.04133311  0.02206060       0.024
   0.12399934  0.04133311  0.02206060       0.024
   0.06199967  0.06199967  0.02206060       0.012
   0.08266623  0.06199967  0.02206060       0.024
   0.10333279  0.06199967  0.02206060       0.024
   0.12399934  0.06199967  0.02206060       0.024
   0.08266623  0.08266623  0.02206060       0.012
   0.10333279  0.08266623  0.02206060       0.024
   0.12399934  0.08266623  0.02206060       0.024
   0.10333279  0.10333279  0.02206060       0.012
   0.12399934  0.10333279  0.02206060       0.024
   0.12399934  0.12399934  0.02206060       0.012
   0.00000000  0.00000000  0.04412121       0.001
   0.02066656  0.00000000  0.04412121       0.006
   0.04133311  0.00000000  0.04412121       0.006
   0.06199967  0.00000000  0.04412121       0.006
   0.08266623  0.00000000  0.04412121       0.006
   0.10333279  0.00000000  0.04412121       0.006
   0.12399934  0.00000000  0.04412121       0.006
   0.02066656  0.02066656  0.04412121       0.006
   0.04133311  0.02066656  0.04412121       0.012
   0.06199967  0.02066656  0.04412121       0.012
   0.08266623  0.02066656  0.04412121       0.012
   0.10333279  0.02066656  0.04412121       0.012
   0.12399934  0.02066656  0.04412121       0.012
   0.04133311  0.04133311  0.04412121       0.006
   0.06199967  0.04133311  0.04412121       0.012
   0.08266623  0.04133311  0.04412121       0.012
   0.10333279  0.04133311  0.04412121       0.012
   0.12399934  0.04133311  0.04412121       0.012
   0.06199967  0.06199967  0.04412121       0.006
   0.08266623  0.06199967  0.04412121       0.012
   0.10333279  0.06199967  0.04412121       0.012
   0.12399934  0.06199967  0.04412121       0.012
   0.08266623  0.08266623  0.04412121       0.006
   0.10333279  0.08266623  0.04412121       0.012
   0.12399934  0.08266623  0.04412121       0.012
   0.10333279  0.10333279  0.04412121       0.006
   0.12399934  0.10333279  0.04412121       0.012
   0.12399934  0.12399934  0.04412121       0.006
 
 k-points in reciprocal lattice and weights: pymatgen with grid density = 8800 / numb
   0.00000000  0.00000000  0.00000000       0.001
   0.07692308  0.00000000  0.00000000       0.006
   0.15384615  0.00000000  0.00000000       0.006
   0.23076923  0.00000000  0.00000000       0.006
   0.30769231  0.00000000  0.00000000       0.006
   0.38461538  0.00000000  0.00000000       0.006
   0.46153846  0.00000000  0.00000000       0.006
   0.07692308  0.07692308  0.00000000       0.006
   0.15384615  0.07692308  0.00000000       0.012
   0.23076923  0.07692308  0.00000000       0.012
   0.30769231  0.07692308  0.00000000       0.012
   0.38461538  0.07692308  0.00000000       0.012
   0.46153846  0.07692308  0.00000000       0.012
   0.15384615  0.15384615  0.00000000       0.006
   0.23076923  0.15384615  0.00000000       0.012
   0.30769231  0.15384615  0.00000000       0.012
   0.38461538  0.15384615  0.00000000       0.012
   0.46153846  0.15384615  0.00000000       0.012
   0.23076923  0.23076923  0.00000000       0.006
   0.30769231  0.23076923  0.00000000       0.012
   0.38461538  0.23076923  0.00000000       0.012
   0.46153846  0.23076923  0.00000000       0.012
   0.30769231  0.30769231  0.00000000       0.006
   0.38461538  0.30769231  0.00000000       0.012
   0.46153846  0.30769231  0.00000000       0.012
   0.38461538  0.38461538  0.00000000       0.006
   0.46153846  0.38461538  0.00000000       0.012
   0.46153846  0.46153846  0.00000000       0.006
   0.00000000  0.00000000  0.25000000       0.003
   0.07692308  0.00000000  0.25000000       0.012
   0.15384615  0.00000000  0.25000000       0.012
   0.23076923  0.00000000  0.25000000       0.012
   0.30769231  0.00000000  0.25000000       0.012
   0.38461538  0.00000000  0.25000000       0.012
   0.46153846  0.00000000  0.25000000       0.012
   0.07692308  0.07692308  0.25000000       0.012
   0.15384615  0.07692308  0.25000000       0.024
   0.23076923  0.07692308  0.25000000       0.024
   0.30769231  0.07692308  0.25000000       0.024
   0.38461538  0.07692308  0.25000000       0.024
   0.46153846  0.07692308  0.25000000       0.024
   0.15384615  0.15384615  0.25000000       0.012
   0.23076923  0.15384615  0.25000000       0.024
   0.30769231  0.15384615  0.25000000       0.024
   0.38461538  0.15384615  0.25000000       0.024
   0.46153846  0.15384615  0.25000000       0.024
   0.23076923  0.23076923  0.25000000       0.012
   0.30769231  0.23076923  0.25000000       0.024
   0.38461538  0.23076923  0.25000000       0.024
   0.46153846  0.23076923  0.25000000       0.024
   0.30769231  0.30769231  0.25000000       0.012
   0.38461538  0.30769231  0.25000000       0.024
   0.46153846  0.30769231  0.25000000       0.024
   0.38461538  0.38461538  0.25000000       0.012
   0.46153846  0.38461538  0.25000000       0.024
   0.46153846  0.46153846  0.25000000       0.012
   0.00000000  0.00000000  0.50000000       0.001
   0.07692308  0.00000000  0.50000000       0.006
   0.15384615  0.00000000  0.50000000       0.006
   0.23076923  0.00000000  0.50000000       0.006
   0.30769231  0.00000000  0.50000000       0.006
   0.38461538  0.00000000  0.50000000       0.006
   0.46153846  0.00000000  0.50000000       0.006
   0.07692308  0.07692308  0.50000000       0.006
   0.15384615  0.07692308  0.50000000       0.012
   0.23076923  0.07692308  0.50000000       0.012
   0.30769231  0.07692308  0.50000000       0.012
   0.38461538  0.07692308  0.50000000       0.012
   0.46153846  0.07692308  0.50000000       0.012
   0.15384615  0.15384615  0.50000000       0.006
   0.23076923  0.15384615  0.50000000       0.012
   0.30769231  0.15384615  0.50000000       0.012
   0.38461538  0.15384615  0.50000000       0.012
   0.46153846  0.15384615  0.50000000       0.012
   0.23076923  0.23076923  0.50000000       0.006
   0.30769231  0.23076923  0.50000000       0.012
   0.38461538  0.23076923  0.50000000       0.012
   0.46153846  0.23076923  0.50000000       0.012
   0.30769231  0.30769231  0.50000000       0.006
   0.38461538  0.30769231  0.50000000       0.012
   0.46153846  0.30769231  0.50000000       0.012
   0.38461538  0.38461538  0.50000000       0.006
   0.46153846  0.38461538  0.50000000       0.012
   0.46153846  0.46153846  0.50000000       0.006
 
 position of ions in fractional coordinates (direct lattice) 
   0.00000000  0.50000000  0.16671232
   0.00000000  0.50000000  0.49917312
   0.00000000  0.50000000  0.83333508
   0.50000000  0.50000000  0.00540071
   0.50000000  0.50000000  0.33851796
   0.50000000  0.50000000  0.66387365
   0.50000000  0.00000000  0.16671232
   0.50000000  0.00000000  0.49917312
   0.50000000  0.00000000  0.83333508
   0.00000000  0.00000000  0.99822174
   0.00000000  0.00000000  0.32936649
   0.00000000  0.00000000  0.66617842
 
 position of ions in cartesian coordinates  (Angst):
   0.00000000  1.86105206  1.88925381
   0.00000000  1.86105206  5.65683883
   0.00000000  1.86105206  9.44370219
   1.86105206  1.86105206  0.06120306
   1.86105206  1.86105206  3.83622736
   1.86105206  1.86105206  7.52329422
   1.86105206  0.00000000  1.88925381
   1.86105206  0.00000000  5.65683883
   1.86105206  0.00000000  9.44370219
   0.00000000  0.00000000 11.31226691
   0.00000000  0.00000000  3.73251898
   0.00000000  0.00000000  7.54941292
 


--------------------------------------------------------------------------------------------------------


 k-point     1 :   0.0000 0.0000 0.0000  plane waves:    4203
 k-point     2 :   0.0769 0.0000 0.0000  plane waves:    4197
 k-point     3 :   0.1538 0.0000 0.0000  plane waves:    4202
 k-point     4 :   0.2308 0.0000 0.0000  plane waves:    4214
 k-point     5 :   0.3077 0.0000 0.0000  plane waves:    4224
 k-point     6 :   0.3846 0.0000 0.0000  plane waves:    4220
 k-point     7 :   0.4615 0.0000 0.0000  plane waves:    4234
 k-point     8 :   0.0769 0.0769 0.0000  plane waves:    4197
 k-point     9 :   0.1538 0.0769 0.0000  plane waves:    4212
 k-point    10 :   0.2308 0.0769 0.0000  plane waves:    4216
 k-point    11 :   0.3077 0.0769 0.0000  plane waves:    4211
 k-point    12 :   0.3846 0.0769 0.0000  plane waves:    4215
 k-point    13 :   0.4615 0.0769 0.0000  plane waves:    4226
 k-point    14 :   0.1538 0.1538 0.0000  plane waves:    4216
 k-point    15 :   0.2308 0.1538 0.0000  plane waves:    4215
 k-point    16 :   0.3077 0.1538 0.0000  plane waves:    4235
 k-point    17 :   0.3846 0.1538 0.0000  plane waves:    4230
 k-point    18 :   0.4615 0.1538 0.0000  plane waves:    4233
 k-point    19 :   0.2308 0.2308 0.0000  plane waves:    4238
 k-point    20 :   0.3077 0.2308 0.0000  plane waves:    4230
 k-point    21 :   0.3846 0.2308 0.0000  plane waves:    4242
 k-point    22 :   0.4615 0.2308 0.0000  plane waves:    4234
 k-point    23 :   0.3077 0.3077 0.0000  plane waves:    4240
 k-point    24 :   0.3846 0.3077 0.0000  plane waves:    4243
 k-point    25 :   0.4615 0.3077 0.0000  plane waves:    4237
 k-point    26 :   0.3846 0.3846 0.0000  plane waves:    4248
 k-point    27 :   0.4615 0.3846 0.0000  plane waves:    4239
 k-point    28 :   0.4615 0.4615 0.0000  plane waves:    4244
 k-point    29 :   0.0000 0.0000 0.2500  plane waves:    4186
 k-point    30 :   0.0769 0.0000 0.2500  plane waves:    4208
 k-point    31 :   0.1538 0.0000 0.2500  plane waves:    4206
 k-point    32 :   0.2308 0.0000 0.2500  plane waves:    4209
 k-point    33 :   0.3077 0.0000 0.2500  plane waves:    4211
 k-point    34 :   0.3846 0.0000 0.2500  plane waves:    4229
 k-point    35 :   0.4615 0.0000 0.2500  plane waves:    4232
 k-point    36 :   0.0769 0.0769 0.2500  plane waves:    4202
 k-point    37 :   0.1538 0.0769 0.2500  plane waves:    4211
 k-point    38 :   0.2308 0.0769 0.2500  plane waves:    4212
 k-point    39 :   0.3077 0.0769 0.2500  plane waves:    4211
 k-point    40 :   0.3846 0.0769 0.2500  plane waves:    4219
 k-point    41 :   0.4615 0.0769 0.2500  plane waves:    4238
 k-point    42 :   0.1538 0.1538 0.2500  plane waves:    4210
 k-point    43 :   0.2308 0.1538 0.2500  plane waves:    4223
 k-point    44 :   0.3077 0.1538 0.2500  plane waves:    4226
 k-point    45 :   0.3846 0.1538 0.2500  plane waves:    4233
 k-point    46 :   0.4615 0.1538 0.2500  plane waves:    4236
 k-point    47 :   0.2308 0.2308 0.2500  plane waves:    4232
 k-point    48 :   0.3077 0.2308 0.2500  plane waves:    4242
 k-point    49 :   0.3846 0.2308 0.2500  plane waves:    4233
 k-point    50 :   0.4615 0.2308 0.2500  plane waves:    4236
 k-point    51 :   0.3077 0.3077 0.2500  plane waves:    4254
 k-point    52 :   0.3846 0.3077 0.2500  plane waves:    4248
 k-point    53 :   0.4615 0.3077 0.2500  plane waves:    4247
 k-point    54 :   0.3846 0.3846 0.2500  plane waves:    4242
 k-point    55 :   0.4615 0.3846 0.2500  plane waves:    4242
 k-point    56 :   0.4615 0.4615 0.2500  plane waves:    4228
 k-point    57 :   0.0000 0.0000 0.5000  plane waves:    4218
 k-point    58 :   0.0769 0.0000 0.5000  plane waves:    4206
 k-point    59 :   0.1538 0.0000 0.5000  plane waves:    4214
 k-point    60 :   0.2308 0.0000 0.5000  plane waves:    4208
 k-point    61 :   0.3077 0.0000 0.5000  plane waves:    4216
 k-point    62 :   0.3846 0.0000 0.5000  plane waves:    4232
 k-point    63 :   0.4615 0.0000 0.5000  plane waves:    4218
 k-point    64 :   0.0769 0.0769 0.5000  plane waves:    4218
 k-point    65 :   0.1538 0.0769 0.5000  plane waves:    4216
 k-point    66 :   0.2308 0.0769 0.5000  plane waves:    4214
 k-point    67 :   0.3077 0.0769 0.5000  plane waves:    4206
 k-point    68 :   0.3846 0.0769 0.5000  plane waves:    4220
 k-point    69 :   0.4615 0.0769 0.5000  plane waves:    4246
 k-point    70 :   0.1538 0.1538 0.5000  plane waves:    4222
 k-point    71 :   0.2308 0.1538 0.5000  plane waves:    4218
 k-point    72 :   0.3077 0.1538 0.5000  plane waves:    4224
 k-point    73 :   0.3846 0.1538 0.5000  plane waves:    4222
 k-point    74 :   0.4615 0.1538 0.5000  plane waves:    4246
 k-point    75 :   0.2308 0.2308 0.5000  plane waves:    4238
 k-point    76 :   0.3077 0.2308 0.5000  plane waves:    4238
 k-point    77 :   0.3846 0.2308 0.5000  plane waves:    4240
 k-point    78 :   0.4615 0.2308 0.5000  plane waves:    4238
 k-point    79 :   0.3077 0.3077 0.5000  plane waves:    4250
 k-point    80 :   0.3846 0.3077 0.5000  plane waves:    4240
 k-point    81 :   0.4615 0.3077 0.5000  plane waves:    4234
 k-point    82 :   0.3846 0.3846 0.5000  plane waves:    4246
 k-point    83 :   0.4615 0.3846 0.5000  plane waves:    4238
 k-point    84 :   0.4615 0.4615 0.5000  plane waves:    4242

 maximum and minimum number of plane-waves per node :      4254     4186

 maximum number of plane-waves:      4254
 maximum index in each direction: 
   IXMAX=    6   IYMAX=    6   IZMAX=   21
   IXMIN=   -7   IYMIN=   -7   IZMIN=  -21


 serial   3D FFT for wavefunctions
 parallel 3D FFT for charge:
    minimum data exchange during FFTs selected (reduces bandwidth)


 total amount of memory used by VASP MPI-rank0   286356. kBytes
=======================================================================

   base      :      30000. kBytes
   nonl-proj :     103778. kBytes
   fftplans  :        888. kBytes
   grid      :       6813. kBytes
   one-center:        373. kBytes
   wavefun   :     144504. kBytes
 
     INWAV:  cpu time      0.0001: real time      0.0003
 Broyden mixing: mesh for mixing (old mesh)
   NGX = 13   NGY = 13   NGZ = 43
  (NGX  = 56   NGY  = 56   NGZ  =168)
  gives a total of   7267 points

 initial charge density was supplied:
 charge density of overlapping atoms calculated
 number of electron     156.0000000 magnetization       8.4730000
 charge density for first step will be calculated from the start-wavefunctions


--------------------------------------------------------------------------------------------------------


 Maximum index for augmentation-charges         1020 (set IRDMAX)


--------------------------------------------------------------------------------------------------------


 First call to EWALD:  gamma=   0.329
 Maximum number of real-space cells 4x 4x 2
 Maximum number of reciprocal cells 2x 2x 5

    FEWALD:  cpu time      0.0031: real time      0.0031


--------------------------------------- Ionic step        1  -------------------------------------------




--------------------------------------- Iteration      1(   1)  ---------------------------------------


    POTLOK:  cpu time      0.0325: real time      0.0332
    SETDIJ:  cpu time      0.0100: real time      0.0101
    TRIAL :  cpu time      5.9259: real time      5.9762
    CORREC:  cpu time      0.0030: real time      0.0030
    --------------------------------------------
      LOOP:  cpu time      6.0549: real time      6.1539

 eigenvalue-minimisations  : 43008
 total energy-change (2. order) : 0.1772041E+04  (-0.9167325E+04)
 number of electron     156.0000000 magnetization       8.4730000
 augmentation part      156.0000000 magnetization       8.4730000

 Free energy of the ion-electron system (eV)
  ---------------------------------------------------
  alpha Z        PSCENC =      1084.01356410
  Ewald energy   TEWEN  =    -18048.93184832
  -Hartree energ DENC   =     -6015.96441328
  -exchange      EXHF   =         0.00000000
  -V(xc)+E(xc)   XCENC  =       656.53051259
  PAW double counting   =     20094.28289873   -20818.23804152
  entropy T*S    EENTRO =        -0.00031295
  eigenvalues    EBANDS =       516.24581729
  atomic energy  EATOM  =     24304.10294433
  ---------------------------------------------------
  free energy    TOTEN  =      1772.04112096 eV

  energy without entropy =     1772.04143391  energy(sigma->0) =     1772.04122527


--------------------------------------------------------------------------------------------------------




--------------------------------------- Iteration      1(   2)  ---------------------------------------


    TRIAL :  cpu time      5.8772: real time      5.9190
    CORREC:  cpu time      0.0026: real time      0.0026
    --------------------------------------------
      LOOP:  cpu time      5.8912: real time      5.9428

 eigenvalue-minimisations  : 43008
 total energy-change (2. order) :-0.1766143E+04  (-0.1676889E+04)
 number of electron     156.0000000 magnetization       8.4730000
 augmentation part      156.0000000 magnetization       8.4730000

 Free energy of the ion-electron system (eV)
  ---------------------------------------------------
  alpha Z        PSCENC =      1084.01356410
  Ewald energy   TEWEN  =    -18048.93184832
  -Hartree energ DENC   =     -6015.96441328
  -exchange      EXHF   =         0.00000000
  -V(xc)+E(xc)   XCENC  =       656.53051259
  PAW double counting   =     20094.28289873   -20818.23804152
  entropy T*S    EENTRO =        -0.00185355
  eigenvalues    EBANDS =     -1249.89534829
  atomic energy  EATOM  =     24304.10294433
  ---------------------------------------------------
  free energy    TOTEN  =         5.89841478 eV

  energy without entropy =        5.90026833  energy(sigma->0) =        5.89903263


--------------------------------------------------------------------------------------------------------




--------------------------------------- Iteration      1(   3)  ---------------------------------------


    TRIAL :  cpu time      6.9017: real time      6.9480
    CORREC:  cpu time      0.0024: real time      0.0025
    --------------------------------------------
      LOOP:  cpu time      6.9153: real time      6.9728

 eigenvalue-minimisations  : 50304
 total energy-change (2. order) :-0.1093316E+03  (-0.1079324E+03)
 number of electron     156.0000000 magnetization       8.4730000
 augmentation part      156.0000000 magnetization       8.4730000

 Free energy of the ion-electron system (eV)
  ---------------------------------------------------
  alpha Z        PSCENC =      1084.01356410
  Ewald energy   TEWEN  =    -18048.93184832
  -Hartree energ DENC   =     -6015.96441328
  -exchange      EXHF   =         0.00000000
  -V(xc)+E(xc)   XCENC  =       656.53051259
  PAW double counting   =     20094.28289873   -20818.23804152
  entropy T*S    EENTRO =         0.00138837
  eigenvalues    EBANDS =     -1359.23023762
  atomic energy  EATOM  =     24304.10294433
  ---------------------------------------------------
  free energy    TOTEN  =      -103.43323263 eV

  energy without entropy =     -103.43462100  energy(sigma->0) =     -103.43369542


--------------------------------------------------------------------------------------------------------




--------------------------------------- Iteration      1(   4)  ---------------------------------------


    TRIAL :  cpu time      6.2844: real time      6.3291
    CORREC:  cpu time      0.0025: real time      0.0025
    --------------------------------------------
      LOOP:  cpu time      6.2977: real time      6.3543

 eigenvalue-minimisations  : 45888
 total energy-change (2. order) :-0.1598649E+01  (-0.1598336E+01)
 number of electron     156.0000000 magnetization       8.4730000
 augmentation part      156.0000000 magnetization       8.4730000

 Free energy of the ion-electron system (eV)
  ---------------------------------------------------
  alpha Z        PSCENC =      1084.01356410
  Ewald energy   TEWEN  =    -18048.93184832
  -Hartree energ DENC   =     -6015.96441328
  -exchange      EXHF   =         0.00000000
  -V(xc)+E(xc)   XCENC  =       656.53051259
  PAW double counting   =     20094.28289873   -20818.23804152
  entropy T*S    EENTRO =         0.00141945
  eigenvalues    EBANDS =     -1360.82891791
  atomic energy  EATOM  =     24304.10294433
  ---------------------------------------------------
  free energy    TOTEN  =      -105.03188184 eV

  energy without entropy =     -105.03330129  energy(sigma->0) =     -105.03235499


--------------------------------------------------------------------------------------------------------




--------------------------------------- Iteration      1(   5)  ---------------------------------------


    TRIAL :  cpu time      7.3984: real time      7.4477
    CORREC:  cpu time      0.0025: real time      0.0025
    CHARGE:  cpu time      0.1797: real time      0.1807
    --------------------------------------------
      LOOP:  cpu time      7.5907: real time      7.6530

 eigenvalue-minimisations  : 52896
 total energy-change (2. order) :-0.3132164E-01  (-0.3132064E-01)
 number of electron     156.0000252 magnetization       7.2938084
 augmentation part       79.2486257 magnetization       5.2312984

 Free energy of the ion-electron system (eV)
  ---------------------------------------------------
  alpha Z        PSCENC =      1084.01356410
  Ewald energy   TEWEN  =    -18048.93184832
  -Hartree energ DENC   =     -6015.96441328
  -exchange      EXHF   =         0.00000000
  -V(xc)+E(xc)   XCENC  =       656.53051259
  PAW double counting   =     20094.28289873   -20818.23804152
  entropy T*S    EENTRO =         0.00141833
  eigenvalues    EBANDS =     -1360.86023842
  atomic energy  EATOM  =     24304.10294433
  ---------------------------------------------------
  free energy    TOTEN  =      -105.06320347 eV

  energy without entropy =     -105.06462180  energy(sigma->0) =     -105.06367625


--------------------------------------------------------------------------------------------------------




--------------------------------------- Iteration      1(   6)  ---------------------------------------


    POTLOK:  cpu time      0.0222: real time      0.0224
    SETDIJ:  cpu time      0.0084: real time      0.0085
    TRIAL :  cpu time      2.7621: real time      2.7896
    CORREC:  cpu time      4.6839: real time      4.7086
    CHARGE:  cpu time      0.1753: real time      0.1763
    --------------------------------------------
      LOOP:  cpu time      7.6618: real time      7.7275

 eigenvalue-minimisations  :     0
 total energy-change (2. order) : 0.5690237E+02  (-0.1229293E+02)
 number of electron     156.0000255 magnetization       7.5254414
 augmentation part       79.9616555 magnetization       5.3205843

 Free energy of the ion-electron system (eV)
  ---------------------------------------------------
  alpha Z        PSCENC =      1084.01356410
  Ewald energy   TEWEN  =    -18048.93184832
  -Hartree energ DENC   =     -4895.63245472
  -exchange      EXHF   =         0.00000000
  -V(xc)+E(xc)   XCENC  =       609.86847012
  PAW double counting   =     20981.60822909   -21645.54173752
  entropy T*S    EENTRO =        -0.00141082
  eigenvalues    EBANDS =     -2437.64942140
  atomic energy  EATOM  =     24304.10294433
  ---------------------------------------------------
  free energy    TOTEN  =       -48.16083601 eV

  energy without entropy =      -48.15942518  energy(sigma->0) =      -48.16036573


--------------------------------------------------------------------------------------------------------




--------------------------------------- Iteration      1(   7)  ---------------------------------------


    POTLOK:  cpu time      0.0225: real time      0.0227
    SETDIJ:  cpu time      0.0958: real time      0.0963
    TRIAL :  cpu time      3.1666: real time      3.1984
    CORREC:  cpu time      1.6932: real time      1.7085
    CHARGE:  cpu time      0.1662: real time      0.1671
    --------------------------------------------
      LOOP:  cpu time      5.1817: real time      5.2424

 eigenvalue-minimisations  :     0
 total energy-change (2. order) :-0.1595050E+02  (-0.1597346E+02)
 number of electron     156.0000263 magnetization       7.8089530
 augmentation part       82.5588255 magnetization       5.6335758

 Free energy of the ion-electron system (eV)
  ---------------------------------------------------
  alpha Z        PSCENC =      1084.01356410
  Ewald energy   TEWEN  =    -18048.93184832
  -Hartree energ DENC   =     -4984.66812887
  -exchange      EXHF   =         0.00000000
  -V(xc)+E(xc)   XCENC  =       613.88357215
  PAW double counting   =     21066.44168272   -21748.39489118
  entropy T*S    EENTRO =         0.00152512
  eigenvalues    EBANDS =     -2350.55682406
  atomic energy  EATOM  =     24304.10294433
  ---------------------------------------------------
  free energy    TOTEN  =       -64.11133995 eV

  energy without entropy =      -64.11286507  energy(sigma->0) =      -64.11184833


--------------------------------------------------------------------------------------------------------




--------------------------------------- Iteration      1(   8)  ---------------------------------------


    POTLOK:  cpu time      0.0216: real time      0.0218
    SETDIJ:  cpu time      0.0078: real time      0.0079
    TRIAL :  cpu time      2.8841: real time      2.9122
    CORREC:  cpu time      1.0988: real time      1.1102
    CHARGE:  cpu time      0.1641: real time      0.1650
    --------------------------------------------
      LOOP:  cpu time      4.1881: real time      4.2408

 eigenvalue-minimisations  :     0
 total energy-change (2. order) :-0.1699788E+02  (-0.6137540E+01)
 number of electron     156.0000266 magnetization       7.6517569
 augmentation part       83.8827268 magnetization       5.6706574

 Free energy of the ion-electron system (eV)
  ---------------------------------------------------
  alpha Z        PSCENC =      1084.01356410
  Ewald energy   TEWEN  =    -18048.93184832
  -Hartree energ DENC   =     -5357.07676500
  -exchange      EXHF   =         0.00000000
  -V(xc)+E(xc)   XCENC  =       629.19541727
  PAW double counting   =     21584.63383737   -22334.64354764
  entropy T*S    EENTRO =         0.00760812
  eigenvalues    EBANDS =     -1942.40434226
  atomic energy  EATOM  =     24304.10294433
  ---------------------------------------------------
  free energy    TOTEN  =       -81.10921504 eV

  energy without entropy =      -81.11682316  energy(sigma->0) =      -81.11175108


--------------------------------------------------------------------------------------------------------




--------------------------------------- Iteration      1(   9)  ---------------------------------------


    POTLOK:  cpu time      0.0212: real time      0.0214
    SETDIJ:  cpu time      0.0080: real time      0.0080
    TRIAL :  cpu time      2.8851: real time      2.9133
    CORREC:  cpu time      1.1094: real time      1.1207
    CHARGE:  cpu time      0.1615: real time      0.1624
    --------------------------------------------
      LOOP:  cpu time      4.1987: real time      4.2485

 eigenvalue-minimisations  :     0
 total energy-change (2. order) :-0.5763748E+01  (-0.1651119E+01)
 number of electron     156.0000267 magnetization       7.7020137
 augmentation part       84.2981829 magnetization       5.7390371

 Free energy of the ion-electron system (eV)
  ---------------------------------------------------
  alpha Z        PSCENC =      1084.01356410
  Ewald energy   TEWEN  =    -18048.93184832
  -Hartree energ DENC   =     -5549.91193310
  -exchange      EXHF   =         0.00000000
  -V(xc)+E(xc)   XCENC  =       637.21920855
  PAW double counting   =     21943.92565895   -22728.52625221
  entropy T*S    EENTRO =         0.01611740
  eigenvalues    EBANDS =     -1728.77191368
  atomic energy  EATOM  =     24304.10294433
  ---------------------------------------------------
  free energy    TOTEN  =       -86.87296327 eV

  energy without entropy =      -86.88908066  energy(sigma->0) =      -86.87833573


--------------------------------------------------------------------------------------------------------




--------------------------------------- Iteration      1(  10)  ---------------------------------------


    POTLOK:  cpu time      0.0217: real time      0.0219
    SETDIJ:  cpu time      0.0071: real time      0.0072
    TRIAL :  cpu time      2.7823: real time      2.8090
    CORREC:  cpu time      1.1081: real time      1.1192
    CHARGE:  cpu time      0.1628: real time      0.1636
    --------------------------------------------
      LOOP:  cpu time      4.0932: real time      4.1442

 eigenvalue-minimisations  :     0
 total energy-change (2. order) :-0.1458729E+01  (-0.1110002E+01)
 number of electron     156.0000267 magnetization       7.9511631
 augmentation part       84.5466234 magnetization       5.8871963

 Free energy of the ion-electron system (eV)
  ---------------------------------------------------
  alpha Z        PSCENC =      1084.01356410
  Ewald energy   TEWEN  =    -18048.93184832
  -Hartree energ DENC   =     -5605.83385161
  -exchange      EXHF   =         0.00000000
  -V(xc)+E(xc)   XCENC  =       639.67160010
  PAW double counting   =     22056.03489510   -22846.52215414
  entropy T*S    EENTRO =         0.02072362
  eigenvalues    EBANDS =     -1670.88295962
  atomic energy  EATOM  =     24304.10294433
  ---------------------------------------------------
  free energy    TOTEN  =       -88.33169267 eV

  energy without entropy =      -88.35241629  energy(sigma->0) =      -88.33860054


--------------------------------------------------------------------------------------------------------




--------------------------------------- Iteration      1(  11)  ---------------------------------------


    POTLOK:  cpu time      0.0214: real time      0.0216
    SETDIJ:  cpu time      0.0078: real time      0.0078
    TRIAL :  cpu time      2.8792: real time      2.9077
    CORREC:  cpu time      1.1146: real time      1.1259
    CHARGE:  cpu time      0.1595: real time      0.1606
    --------------------------------------------
      LOOP:  cpu time      4.1934: real time      4.2468

 eigenvalue-minimisations  :     0
 total energy-change (2. order) :-0.1216254E+01  (-0.1051463E+01)
 number of electron     156.0000267 magnetization       8.1666889
 augmentation part       84.6311734 magnetization       6.0236646

 Free energy of the ion-electron system (eV)
  ---------------------------------------------------
  alpha Z        PSCENC =      1084.01356410
  Ewald energy   TEWEN  =    -18048.93184832
  -Hartree energ DENC   =     -5634.38941355
  -exchange      EXHF   =         0.00000000
  -V(xc)+E(xc)   XCENC  =       641.04800964
  PAW double counting   =     22117.47482482   -22907.68293340
  entropy T*S    EENTRO =         0.02429455
  eigenvalues    EBANDS =     -1645.20381758
  atomic energy  EATOM  =     24304.10294433
  ---------------------------------------------------
  free energy    TOTEN  =       -89.54794633 eV

  energy without entropy =      -89.57224088  energy(sigma->0) =      -89.55604452


--------------------------------------------------------------------------------------------------------




--------------------------------------- Iteration      1(  12)  ---------------------------------------


    POTLOK:  cpu time      0.0218: real time      0.0220
    SETDIJ:  cpu time      0.0074: real time      0.0075
    TRIAL :  cpu time      2.7828: real time      2.8111
    CORREC:  cpu time      1.1105: real time      1.1222
    CHARGE:  cpu time      0.1572: real time      0.1581
    --------------------------------------------
      LOOP:  cpu time      4.0902: real time      4.1436

 eigenvalue-minimisations  :     0
 total energy-change (2. order) :-0.1099518E+01  (-0.1027256E+01)
 number of electron     156.0000266 magnetization       8.1415923
 augmentation part       84.6705023 magnetization       6.0462109

 Free energy of the ion-electron system (eV)
  ---------------------------------------------------
  alpha Z        PSCENC =      1084.01356410
  Ewald energy   TEWEN  =    -18048.93184832
  -Hartree energ DENC   =     -5635.03108744
  -exchange      EXHF   =         0.00000000
  -V(xc)+E(xc)   XCENC  =       641.37593321
  PAW double counting   =     22120.66104011   -22903.18222901
  entropy T*S    EENTRO =         0.02976287
  eigenvalues    EBANDS =     -1653.68007571
  atomic energy  EATOM  =     24304.10294433
  ---------------------------------------------------
  free energy    TOTEN  =       -90.64746418 eV

  energy without entropy =      -90.67722705  energy(sigma->0) =      -90.65738514


--------------------------------------------------------------------------------------------------------




--------------------------------------- Iteration      1(  13)  ---------------------------------------


    POTLOK:  cpu time      0.0214: real time      0.0216
    SETDIJ:  cpu time      0.0081: real time      0.0082
    TRIAL :  cpu time      2.8594: real time      2.8871
    CORREC:  cpu time      1.2163: real time      1.2284
    CHARGE:  cpu time      0.1562: real time      0.1572
    --------------------------------------------
      LOOP:  cpu time      4.2741: real time      4.3261

 eigenvalue-minimisations  :     0
 total energy-change (2. order) :-0.1297499E+01  (-0.3060525E+00)
 number of electron     156.0000265 magnetization       8.0322063
 augmentation part       84.6722266 magnetization       6.0021062

 Free energy of the ion-electron system (eV)
  ---------------------------------------------------
  alpha Z        PSCENC =      1084.01356410
  Ewald energy   TEWEN  =    -18048.93184832
  -Hartree energ DENC   =     -5627.45635177
  -exchange      EXHF   =         0.00000000
  -V(xc)+E(xc)   XCENC  =       641.45209442
  PAW double counting   =     22113.75406543   -22885.57261959
  entropy T*S    EENTRO =         0.02927057
  eigenvalues    EBANDS =     -1673.33657445
  atomic energy  EATOM  =     24304.10294433
  ---------------------------------------------------
  free energy    TOTEN  =       -91.94496300 eV

  energy without entropy =      -91.97423357  energy(sigma->0) =      -91.95471985


--------------------------------------------------------------------------------------------------------




--------------------------------------- Iteration      1(  14)  ---------------------------------------


    POTLOK:  cpu time      0.0219: real time      0.0220
    SETDIJ:  cpu time      0.0074: real time      0.0074
    TRIAL :  cpu time      2.7449: real time      2.7715
    CORREC:  cpu time      1.1188: real time      1.1303
    CHARGE:  cpu time      0.1551: real time      0.1560
    --------------------------------------------
      LOOP:  cpu time      4.0705: real time      4.1100

 eigenvalue-minimisations  :     0
 total energy-change (2. order) :-0.3024006E+00  (-0.4460098E+00)
 number of electron     156.0000265 magnetization       8.1279824
 augmentation part       84.6951409 magnetization       6.0885926

 Free energy of the ion-electron system (eV)
  ---------------------------------------------------
  alpha Z        PSCENC =      1084.01356410
  Ewald energy   TEWEN  =    -18048.93184832
  -Hartree energ DENC   =     -5625.60084248
  -exchange      EXHF   =         0.00000000
  -V(xc)+E(xc)   XCENC  =       641.46437573
  PAW double counting   =     22109.43502313   -22878.09711819
  entropy T*S    EENTRO =         0.01875298
  eigenvalues    EBANDS =     -1678.66273243
  atomic energy  EATOM  =     24304.10294433
  ---------------------------------------------------
  free energy    TOTEN  =       -92.24736358 eV

  energy without entropy =      -92.26611655  energy(sigma->0) =      -92.25361457


--------------------------------------------------------------------------------------------------------




--------------------------------------- Iteration      1(  15)  ---------------------------------------


    POTLOK:  cpu time      0.0219: real time      0.0221
    SETDIJ:  cpu time      0.0075: real time      0.0076
    TRIAL :  cpu time      2.8359: real time      2.8634
    CORREC:  cpu time      1.1138: real time      1.1253
    CHARGE:  cpu time      0.1547: real time      0.1556
    --------------------------------------------
      LOOP:  cpu time      4.1447: real time      4.1977

 eigenvalue-minimisations  :     0
 total energy-change (2. order) :-0.4461075E+00  (-0.2838437E+00)
 number of electron     156.0000265 magnetization       8.2787071
 augmentation part       84.7312364 magnetization       6.1896179

 Free energy of the ion-electron system (eV)
  ---------------------------------------------------
  alpha Z        PSCENC =      1084.01356410
  Ewald energy   TEWEN  =    -18048.93184832
  -Hartree energ DENC   =     -5637.82945178
  -exchange      EXHF   =         0.00000000
  -V(xc)+E(xc)   XCENC  =       641.94716913
  PAW double counting   =     22096.12317640   -22857.56743642
  entropy T*S    EENTRO =         0.01716660
  eigenvalues    EBANDS =     -1674.57034152
  atomic energy  EATOM  =     24304.10294433
  ---------------------------------------------------
  free energy    TOTEN  =       -92.69347111 eV

  energy without entropy =      -92.71063770  energy(sigma->0) =      -92.69919330


--------------------------------------------------------------------------------------------------------




--------------------------------------- Iteration      1(  16)  ---------------------------------------


    POTLOK:  cpu time      0.0213: real time      0.0215
    SETDIJ:  cpu time      0.0076: real time      0.0076
    TRIAL :  cpu time      2.9185: real time      2.9472
    CORREC:  cpu time      1.1035: real time      1.1150
    CHARGE:  cpu time      0.1543: real time      0.1551
    --------------------------------------------
      LOOP:  cpu time      4.2153: real time      4.2705

 eigenvalue-minimisations  :     0
 total energy-change (2. order) :-0.2542189E+00  (-0.2043408E+00)
 number of electron     156.0000264 magnetization       8.2350409
 augmentation part       84.7994815 magnetization       6.1922957

 Free energy of the ion-electron system (eV)
  ---------------------------------------------------
  alpha Z        PSCENC =      1084.01356410
  Ewald energy   TEWEN  =    -18048.93184832
  -Hartree energ DENC   =     -5649.93519068
  -exchange      EXHF   =         0.00000000
  -V(xc)+E(xc)   XCENC  =       642.40622818
  PAW double counting   =     22095.12175227   -22852.58341553
  entropy T*S    EENTRO =         0.01619863
  eigenvalues    EBANDS =     -1667.15889093
  atomic energy  EATOM  =     24304.10294433
  ---------------------------------------------------
  free energy    TOTEN  =       -92.94769000 eV

  energy without entropy =      -92.96388862  energy(sigma->0) =      -92.95308954


--------------------------------------------------------------------------------------------------------




--------------------------------------- Iteration      1(  17)  ---------------------------------------


    POTLOK:  cpu time      0.0219: real time      0.0222
    SETDIJ:  cpu time      0.0075: real time      0.0075
    TRIAL :  cpu time      2.7716: real time      2.7984
    CORREC:  cpu time      1.1106: real time      1.1218
    CHARGE:  cpu time      0.1578: real time      0.1586
    --------------------------------------------
      LOOP:  cpu time      4.0804: real time      4.1316

 eigenvalue-minimisations  :     0
 total energy-change (2. order) :-0.2005399E+00  (-0.2756340E-01)
 number of electron     156.0000264 magnetization       8.2159313
[...]
     61       8.3351      1.00000
     62       8.5574      1.00000
     63       8.5605      1.00000
     64       8.6352      1.00000
     65       8.7135      1.00000
     66       8.8937      1.00000
     67       8.9397      1.00000
     68       8.9901      1.00000
     69       9.0464      1.00001
     70       9.1735      1.00024
     71       9.2405      1.00119
     72       9.3364      1.00766
     73       9.3750      1.01379
     74       9.5313      1.02871
     75       9.5342      1.02749
     76       9.7385      0.49966
     77       9.8621      0.06973
     78       9.9264     -0.01870
     79      10.0621     -0.02225
     80      10.1266     -0.00966
     81      10.2010     -0.00253
     82      10.2771     -0.00048
     83      10.5676     -0.00000
     84      10.6985     -0.00000
     85      10.7709     -0.00000
     86      10.8137     -0.00000
     87      10.9467     -0.00000
     88      11.2764     -0.00000
     89      11.3854     -0.00000
     90      11.4601     -0.00000
     91      11.5569     -0.00000
     92      11.5836     -0.00000
     93      11.8905     -0.00000
     94      11.9545     -0.00000
     95      12.1455     -0.00000
     96      12.3675     -0.00000
     97      12.5466     -0.00000
     98      12.5930     -0.00000
     99      13.0409     -0.00000
    100      14.8583      0.00000
    101      16.7590      0.00000
    102      16.7964      0.00000
    103      16.8620      0.00000
    104      17.7796      0.00000
    105      17.9283      0.00000
    106      18.4321      0.00000
    107      18.6437      0.00000
    108      19.0056      0.00000
    109      19.1671      0.00000
    110      19.5607      0.00000
    111      19.6312      0.00000
    112      23.7912      0.00000
    113      23.9600      0.00000
    114      24.3902      0.00000
    115      24.4454      0.00000
    116      24.6835      0.00000
    117      24.8480      0.00000
    118      25.5782      0.00000
    119      25.7259      0.00000
    120      27.1785      0.00000
    121      27.2145      0.00000
    122      27.2549      0.00000
    123      27.6885      0.00000
    124      28.3501      0.00000
    125      28.6526      0.00000
    126      28.8470      0.00000
    127      29.0808      0.00000
    128      29.6091      0.00000


--------------------------------------------------------------------------------------------------------


 soft charge-density along one line, spin component           1
         0         1         2         3         4         5         6         7         8         9
 total charge-density along one line
 
 soft charge-density along one line, spin component           2
         0         1         2         3         4         5         6         7         8         9
 total charge-density along one line
 
 pseudopotential strength for first ion, spin component:           1
-43.024   0.000   0.000   6.793  -0.000  -0.000  -0.000   0.002
  0.000 -43.060   0.000  -0.000   6.807  -0.000   0.000   0.000
  0.000   0.000 -42.987  -0.000  -0.000   6.777   0.000   0.000
  6.793  -0.000  -0.000   5.868  -0.000  -0.000   0.000  -0.001
 -0.000   6.807  -0.000  -0.000   5.864  -0.000  -0.000  -0.000
 -0.000  -0.000   6.777  -0.000  -0.000   5.871  -0.000  -0.000
 -0.000   0.000   0.000   0.000  -0.000  -0.000  -0.531   0.000
  0.002   0.000   0.000  -0.001  -0.000  -0.000   0.000  -0.531
 -0.000   0.003   0.000   0.000   0.000   0.000  -0.000   0.000
  0.000   0.000  -0.006  -0.000   0.000   0.005   0.000   0.000
 -0.000  -0.004  -0.000   0.000   0.003  -0.000   0.000  -0.000
 -0.000   0.000   0.000  -0.000  -0.000  -0.000  -1.069   0.000
  0.002   0.000   0.000  -0.001  -0.000  -0.000   0.000  -1.070
 -0.000   0.003   0.000   0.000   0.000  -0.000  -0.000   0.000
  0.000   0.000  -0.005  -0.000   0.000   0.005   0.000   0.000
 -0.000  -0.004  -0.000   0.000   0.003   0.000   0.000  -0.000
 -0.000   0.002   0.000  -0.000   0.001   0.000  -0.000  -0.000
 -0.000   0.005  -0.000  -0.000   0.004   0.000  -0.000  -0.000
 pseudopotential strength for first ion, spin component:           2
-45.192   0.000  -0.000   7.705  -0.000   0.000   0.000   0.005
  0.000 -45.262   0.000  -0.000   7.733  -0.000   0.000   0.000
 -0.000   0.000 -45.074   0.000  -0.000   7.657   0.000   0.000
  7.705  -0.000   0.000   5.610  -0.000   0.000  -0.000  -0.003
 -0.000   7.733  -0.000  -0.000   5.604  -0.000  -0.000  -0.000
  0.000  -0.000   7.657   0.000  -0.000   5.620  -0.000  -0.000
  0.000   0.000   0.000  -0.000  -0.000  -0.000  -2.187   0.000
  0.005   0.000   0.000  -0.003  -0.000  -0.000   0.000  -2.365
 -0.000   0.015   0.000   0.000  -0.007   0.000   0.000   0.000
  0.000   0.000   0.025  -0.000  -0.000  -0.011   0.000  -0.000
 -0.000   0.010  -0.000   0.000  -0.004  -0.000   0.000  -0.000
 -0.000   0.000   0.000  -0.000  -0.000  -0.000  -2.699   0.000
  0.005   0.000   0.000  -0.003  -0.000  -0.000   0.000  -2.874
 -0.000   0.014   0.000   0.000  -0.007  -0.000   0.000   0.000
  0.000   0.000   0.024  -0.000  -0.000  -0.011   0.000  -0.000
 -0.000   0.010  -0.000   0.000  -0.004  -0.000   0.000  -0.000
 -0.000  -0.005  -0.000  -0.000   0.004   0.000   0.000  -0.000
 -0.000  -0.013  -0.000  -0.000   0.009  -0.000   0.000  -0.000
 total augmentation occupancy for first ion, spin component:           1
  1.992  -0.000   0.000  -0.027   0.000   0.000   0.000  -0.007   0.000   0.000   0.000   0.000   0.007   0.000  -0.000   0.000
 -0.000   1.992   0.000   0.000  -0.028   0.000   0.000   0.000  -0.004   0.000   0.003   0.000   0.000   0.004   0.000  -0.003
  0.000   0.000   1.992   0.000  -0.000  -0.027   0.000   0.000   0.000  -0.001   0.000   0.000   0.000   0.000   0.001   0.000
 -0.027   0.000   0.000   0.181   0.000   0.000   0.000  -0.019   0.000   0.000   0.000   0.000   0.025   0.000   0.000  -0.000
  0.000  -0.028  -0.000   0.000   0.181   0.000   0.000  -0.000  -0.012   0.000   0.018  -0.000   0.000   0.004   0.000  -0.029
  0.000   0.000  -0.027   0.000   0.000   0.161  -0.000  -0.000  -0.000   0.013  -0.000  -0.000   0.000   0.000  -0.036   0.000
  0.000   0.000   0.000   0.000   0.000  -0.000   2.772   0.000   0.000   0.000   0.000  -1.476   0.000   0.000   0.000   0.000
 -0.007   0.000   0.000  -0.019  -0.000  -0.000   0.000   2.933   0.000   0.000   0.000   0.000  -1.959   0.000   0.000   0.000
  0.000  -0.004   0.000   0.000  -0.012  -0.000   0.000   0.000   3.309   0.000   0.221   0.000   0.000  -1.874   0.000  -0.124
  0.000   0.000  -0.001   0.000   0.000   0.013   0.000   0.000   0.000   2.635   0.000   0.000   0.000   0.000  -1.397   0.000
  0.000   0.003   0.000   0.000   0.018  -0.000   0.000   0.000   0.221   0.000   2.998   0.000   0.000  -0.124   0.000  -1.692
  0.000   0.000   0.000   0.000  -0.000  -0.000  -1.476   0.000   0.000   0.000   0.000   1.622   0.000   0.000   0.000  -0.000
  0.007   0.000   0.000   0.025   0.000   0.000   0.000  -1.959   0.000   0.000   0.000   0.000   2.230   0.000   0.000   0.000
  0.000   0.004   0.000   0.000   0.004   0.000   0.000   0.000  -1.874   0.000  -0.124   0.000   0.000   1.747   0.000   0.043
 -0.000   0.000   0.001   0.000   0.000  -0.036   0.000   0.000   0.000  -1.397   0.000   0.000   0.000   0.000   1.537   0.000
  0.000  -0.003   0.000  -0.000  -0.029   0.000   0.000   0.000  -0.124   0.000  -1.692  -0.000   0.000   0.043   0.000   1.661
  0.000  -0.000   0.000   0.000   0.000   0.000   0.000   0.000  -0.112   0.000   0.186   0.000   0.000   0.072   0.000  -0.139
  0.000   0.001  -0.000   0.000   0.000   0.000   0.000   0.000   0.012   0.000  -0.012   0.000   0.000  -0.006  -0.000   0.008
 total augmentation occupancy for first ion, spin component:           2
  0.002   0.000   0.000   0.008   0.000   0.000   0.000   0.002   0.000   0.000   0.000   0.000  -0.002   0.000   0.000   0.000
  0.000   0.002   0.000   0.000   0.008  -0.000   0.000   0.000   0.005   0.000   0.004   0.000   0.000  -0.005   0.000  -0.005
  0.000   0.000   0.002   0.000   0.000   0.009   0.000  -0.000   0.000   0.011  -0.000  -0.000   0.000   0.000  -0.012  -0.000
  0.008   0.000   0.000  -0.007   0.000   0.000   0.000   0.020   0.000   0.000   0.000   0.000  -0.017   0.000  -0.000   0.000
  0.000   0.008   0.000   0.000  -0.002  -0.000   0.000   0.000  -0.006   0.000  -0.038   0.000   0.000  -0.008   0.000   0.015
  0.000  -0.000   0.009   0.000  -0.000  -0.003  -0.000   0.000   0.000  -0.066   0.000   0.000   0.000  -0.000   0.014   0.000
  0.000   0.000   0.000   0.000   0.000  -0.000  -2.116  -0.000   0.000   0.000  -0.000   0.956  -0.000   0.000   0.000  -0.000
  0.002   0.000  -0.000   0.020   0.000   0.000  -0.000  -2.083   0.000   0.000  -0.000   0.000   0.731   0.000   0.000  -0.000
  0.000   0.005   0.000   0.000  -0.006   0.000   0.000   0.000  -2.617   0.000  -0.084   0.000   0.000   1.154   0.000   0.076
  0.000   0.000   0.011   0.000   0.000  -0.066   0.000   0.000   0.000  -1.925   0.000   0.000   0.000   0.000   0.714  -0.000
  0.000   0.004  -0.000   0.000  -0.038   0.000  -0.000  -0.000  -0.084   0.000  -2.371  -0.000   0.000   0.077   0.000   0.910
  0.000   0.000  -0.000   0.000   0.000   0.000   0.956   0.000   0.000   0.000  -0.000  -0.254  -0.000   0.000   0.000   0.000
 -0.002   0.000   0.000  -0.017   0.000   0.000  -0.000   0.731   0.000   0.000   0.000  -0.000   0.002   0.000   0.000   0.000
  0.000  -0.005   0.000   0.000  -0.008  -0.000   0.000   0.000   1.154   0.000   0.077   0.000   0.000  -0.389   0.000  -0.080
  0.000   0.000  -0.012  -0.000   0.000   0.014   0.000   0.000   0.000   0.714   0.000   0.000   0.000   0.000  -0.039   0.000
  0.000  -0.005  -0.000   0.000   0.015   0.000  -0.000  -0.000   0.076  -0.000   0.910   0.000   0.000  -0.080   0.000  -0.154
  0.000  -0.002  -0.000   0.000  -0.018   0.000   0.000   0.000   0.004   0.000  -0.048   0.000   0.000  -0.018  -0.000   0.040
  0.000   0.000   0.000   0.000  -0.000   0.000   0.000   0.000  -0.008   0.000   0.005   0.000   0.000   0.002   0.000  -0.001


------------------------ aborting loop because EDIFF is reached ----------------------------------------





 total charge

# of ion       s       p       d       tot
------------------------------------------
    1        0.349   6.325   6.021  12.695
    2        0.346   6.319   6.035  12.700
    3        0.345   6.318   6.011  12.673
    4        0.352   6.328   6.007  12.686
    5        0.350   6.325   6.012  12.688
    6        0.346   6.323   6.011  12.680
    7        0.349   6.325   6.021  12.695
    8        0.346   6.319   6.035  12.700
    9        0.345   6.318   6.011  12.673
   10        0.765   0.682   8.026   9.473
   11        0.769   0.679   8.031   9.479
   12        0.754   0.696   8.026   9.476
--------------------------------------------------
tot          5.414  58.957  78.246 142.618



 magnetization (x)

# of ion       s       p       d       tot
------------------------------------------
    1       -0.013  -0.006  -2.533  -2.552
    2        0.002  -0.012   2.652   2.643
    3        0.010   0.002   2.608   2.621
    4       -0.018  -0.021  -2.570  -2.609
    5        0.015   0.021   2.563   2.599
    6        0.002  -0.014   2.789   2.776
    7       -0.013  -0.006  -2.533  -2.552
    8        0.002  -0.012   2.652   2.643
    9        0.010   0.002   2.608   2.621
   10        0.008   0.015  -0.068  -0.046
   11       -0.009  -0.017   0.083   0.058
   12       -0.040  -0.097   0.411   0.275
--------------------------------------------------
tot         -0.043  -0.144   8.663   8.475
 
    FORLOC:  cpu time      0.0009: real time      0.0009
    FORNL :  cpu time      0.7338: real time      0.7381
    STRESS:  cpu time      4.4549: real time      4.4914
    FORCOR:  cpu time      0.0210: real time      0.0211
    OFIELD:  cpu time      0.0001: real time      0.0001

  FORCE on cell =-STRESS in cart. coord.  units (eV):
  Direction    XX          YY          ZZ          XY          YZ          ZX
  --------------------------------------------------------------------------------------
  Alpha Z  1084.01356  1084.01356  1084.01356
  Ewald   -6007.10516 -6007.10516 -6034.74499     0.00000     0.00000    -0.00000
  Hartree  1897.71820  1897.71820  1873.00444    -0.00000    -0.00000    -0.00000
  E(xc)    -943.39653  -943.39653  -943.33599     0.00000    -0.00000     0.00000
  Local    1048.78124  1048.78124  1108.02768     0.00000    -0.00000    -0.00000
  n-local  -215.24280  -229.58567  -222.90969    14.26398     0.11267     0.18578
  augment  1440.66944  1440.66944  1436.40009     0.00000     0.00000     0.00000
  Kinetic  1706.08051  1690.79332  1696.25946     3.03054     0.05819    -0.03132
  Fock        0.00000     0.00000     0.00000     0.00000     0.00000     0.00000
  -------------------------------------------------------------------------------------
  Total      -3.29657    -3.29657    -3.28543     0.00000     0.00000     0.00000
  in kB     -33.64131   -33.64131   -33.52767     0.00000     0.00000     0.00000
  external pressure =      -33.60 kB  Pullay stress =        0.00 kB


 VOLUME and BASIS-vectors are now :
 -----------------------------------------------------------------------------
  energy-cutoff  :      520.00
  volume of cell :      157.00
      direct lattice vectors                 reciprocal lattice vectors
     3.722104116  0.000000000  0.000000000     0.268665241  0.000000000  0.000000000
     0.000000000  3.722104116  0.000000000     0.000000000  0.268665241  0.000000000
     0.000000000  0.000000000 11.332418854     0.000000000  0.000000000  0.088242414

  length of vectors
     3.722104116  3.722104116 11.332418854     0.268665241  0.268665241  0.088242414


 FORCES acting on ions:
    Electron-Ion                     Ewald-Force                    Non-Local-Force
 -----------------------------------------------------------------------------------------------
   -.415E-13 0.109E-11 0.321E+01   -.254E-13 0.208E-13 -.419E+01   -.401E-18 0.104E-17 0.971E+00
   -.372E-13 0.103E-11 -.249E+02   -.123E-13 0.835E-14 0.252E+02   0.677E-20 -.721E-18 -.360E+00
   -.372E-13 0.251E-11 -.487E+01   -.366E-15 0.225E-13 0.364E+01   0.192E-18 -.312E-17 0.123E+01
   0.114E-11 -.383E-11 0.738E+02   -.664E-14 0.130E-13 -.713E+02   0.740E-18 -.855E-18 -.255E+01
   0.116E-11 -.422E-11 0.522E+02   -.135E-13 0.100E-13 -.500E+02   -.340E-18 0.114E-18 -.225E+01
   0.116E-11 -.492E-11 -.590E+02   -.309E-13 0.408E-13 0.592E+02   -.798E-19 0.170E-18 -.199E+00
   0.114E-11 0.359E-12 0.321E+01   0.752E-14 0.670E-14 -.419E+01   -.671E-18 -.629E-19 0.971E+00
   0.114E-11 0.225E-12 -.249E+02   -.115E-14 -.223E-14 0.252E+02   -.146E-17 0.186E-18 -.360E+00
   0.115E-11 -.535E-13 -.487E+01   0.151E-13 -.236E-13 0.364E+01   -.891E-18 -.107E-18 0.123E+01
   -.215E-13 -.107E-12 0.194E+02   0.132E-13 -.210E-13 -.198E+02   -.830E-18 -.276E-18 0.354E+00
   -.169E-13 -.202E-12 -.441E+01   0.385E-13 -.217E-14 0.431E+01   -.116E-19 -.191E-18 0.162E+00
   -.195E-13 -.649E-13 -.284E+02   0.303E-13 -.583E-13 0.281E+02   -.287E-18 -.301E-18 0.240E+00
 -----------------------------------------------------------------------------------------------
   0.676E-11 -.822E-11 0.554E+00   0.145E-13 0.149E-13 0.284E-13   -.403E-17 -.412E-17 -.554E+00
 
 
 POSITION                                       TOTAL-FORCE (eV/Angst)
 -----------------------------------------------------------------------------------
      0.00000      1.86105      1.88925        -0.000000      0.000000     -0.000232
      0.00000      1.86105      5.65684         0.000000     -0.000000     -0.001728
      0.00000      1.86105      9.44370        -0.000000      0.000000      0.002896
      1.86105      1.86105      0.06120        -0.000000     -0.000000      0.005701
      1.86105      1.86105      3.83623         0.000000      0.000000      0.006708
      1.86105      1.86105      7.52329         0.000000      0.000000      0.001208
      1.86105      0.00000      1.88925         0.000000     -0.000000     -0.000232
      1.86105      0.00000      5.65684        -0.000000     -0.000000     -0.001728
      1.86105      0.00000      9.44370        -0.000000     -0.000000      0.002896
      0.00000      0.00000     11.31227        -0.000000     -0.000000     -0.009026
      0.00000      0.00000      3.73252        -0.000000     -0.000000     -0.005286
      0.00000      0.00000      7.54941        -0.000000     -0.000000     -0.001176
 -----------------------------------------------------------------------------------
    total drift:                                0.000000     -0.000000     -0.000004


--------------------------------------------------------------------------------------------------------



  FREE ENERGIE OF THE ION-ELECTRON SYSTEM (eV)
  ---------------------------------------------------
  free  energy   TOTEN  =       -93.32708374 eV

  energy  without entropy=      -93.33665967  energy(sigma->0) =      -93.33027572
 


--------------------------------------------------------------------------------------------------------


    POTLOK:  cpu time      0.0502: real time      0.0505


--------------------------------------------------------------------------------------------------------




--------------------------------------------------------------------------------------------------------


  
 reached required accuracy - stopping structural energy minimisation
     LOOP+:  cpu time    215.4580: real time    218.2190
    4ORBIT:  cpu time      0.0000: real time      0.0000



 total charge

# of ion       s       p       d       tot
------------------------------------------
    1        0.349   6.325   6.021  12.695
    2        0.346   6.319   6.035  12.700
    3        0.345   6.318   6.011  12.673
    4        0.352   6.328   6.007  12.686
    5        0.350   6.325   6.012  12.688
    6        0.346   6.323   6.011  12.680
    7        0.349   6.325   6.021  12.695
    8        0.346   6.319   6.035  12.700
    9        0.345   6.318   6.011  12.673
   10        0.765   0.682   8.026   9.473
   11        0.769   0.679   8.031   9.479
   12        0.754   0.696   8.026   9.476
--------------------------------------------------
tot          5.414  58.957  78.246 142.618



 magnetization (x)

# of ion       s       p       d       tot
------------------------------------------
    1       -0.013  -0.006  -2.533  -2.552
    2        0.002  -0.012   2.652   2.643
    3        0.010   0.002   2.608   2.621
    4       -0.018  -0.021  -2.570  -2.609
    5        0.015   0.021   2.563   2.599
    6        0.002  -0.014   2.789   2.776
    7       -0.013  -0.006  -2.533  -2.552
    8        0.002  -0.012   2.652   2.643
    9        0.010   0.002   2.608   2.621
   10        0.008   0.015  -0.068  -0.046
   11       -0.009  -0.017   0.083   0.058
   12       -0.040  -0.097   0.411   0.275
--------------------------------------------------
tot         -0.043  -0.144   8.663   8.475
 

 total amount of memory used by VASP MPI-rank0   286356. kBytes
=======================================================================

   base      :      30000. kBytes
   nonl-proj :     103778. kBytes
   fftplans  :        888. kBytes
   grid      :       6813. kBytes
   one-center:        373. kBytes
   wavefun   :     144504. kBytes
 
  
  
 General timing and accounting informations for this job:
 ========================================================
  
                  Total CPU time used (sec):      236.570
                            User time (sec):      227.719
                          System time (sec):        8.850
                         Elapsed time (sec):      244.159
  
                   Maximum memory used (kb):     1173608.
                   Average memory used (kb):          N/A
  
                          Minor page faults:       179550
                          Major page faults:          701
                 Voluntary context switches:        11825
