       N       E                     dE             d eps       ncg     rms          ort
DAV:   1     0.177436493772E+04    0.17744E+04   -0.91751E+04 10752   0.196E+03
DAV:   2     0.674049531578E+01   -0.17676E+04   -0.16753E+04 10752   0.479E+02
DAV:   3    -0.102358582337E+03   -0.10910E+03   -0.10730E+03 10752   0.127E+02
DAV:   4    -0.103998074846E+03   -0.16395E+01   -0.16391E+01 10752   0.156E+01
DAV:   5    -0.104031073656E+03   -0.32999E-01   -0.32998E-01 10752   0.214E+00
SDA:   6    -0.553736310187E+02    0.48657E+02   -0.32998E-01 10752   0.254E+03 0.000E+00
CGA:   7    -0.869161503101E+02   -0.31543E+02   -0.31236E+02 10752   0.198E+02 0.243E+01
CGA:   8    -0.887881058606E+02   -0.18720E+01   -0.19195E+01 10752   0.554E+02-0.263E+00
CGA:   9    -0.908944454420E+02   -0.21063E+01   -0.14019E+01 10752   0.165E+02 0.281E+02
CGA:  10    -0.912777551122E+02   -0.38331E+00   -0.39398E+00 10752   0.433E+01-0.489E+00
CGA:  11    -0.926382341950E+02   -0.13605E+01   -0.13539E+01 10752   0.423E+01 0.477E-01
CGA:  12    -0.928564029242E+02   -0.21817E+00   -0.22196E+00 10752   0.505E+01-0.592E-01
CGA:  13    -0.932357606946E+02   -0.37936E+00   -0.38648E+00 10752   0.445E+00-0.900E-01
CGA:  14    -0.932820357170E+02   -0.46275E-01   -0.46519E-01 10752   0.505E+00-0.490E-03
CGA:  15    -0.933065764323E+02   -0.24541E-01   -0.25086E-01 10752   0.460E+00-0.894E-02
CGA:  16    -0.933487944716E+02   -0.42218E-01   -0.42604E-01 10752   0.553E-01-0.174E-02
CGA:  17    -0.933557366204E+02   -0.69421E-02   -0.69523E-02 10752   0.181E+00 0.772E-04
CGA:  18    -0.933669867436E+02   -0.11250E-01   -0.11332E-01 10752   0.528E-01-0.907E-03
CGA:  19    -0.933725153615E+02   -0.55286E-02   -0.55511E-02 10752   0.424E-01 0.366E-04
CGA:  20    -0.933763379777E+02   -0.38226E-02   -0.38324E-02 10752   0.782E-01-0.683E-05
CGA:  21    -0.933805044858E+02   -0.41665E-02   -0.42047E-02 10752   0.145E-01-0.438E-03
CGA:  22    -0.933834358900E+02   -0.29314E-02   -0.29266E-02 10752   0.262E-01 0.658E-04
CGA:  23    -0.933842820516E+02   -0.84616E-03   -0.85069E-03 10752   0.550E-02-0.127E-03
CGA:  24    -0.933847652763E+02   -0.48322E-03   -0.48130E-03 10752   0.249E-02-0.327E-04
CGA:  25    -0.933850183590E+02   -0.25308E-03   -0.25133E-03 10752   0.524E-02-0.483E-04
CGA:  26    -0.933852786548E+02   -0.26030E-03   -0.25517E-03 10752   0.322E-03-0.603E-04
CGA:  27    -0.933853270567E+02   -0.48402E-04   -0.48658E-04 10752   0.703E-03-0.113E-04
CGA:  28    -0.933853551370E+02   -0.28080E-04   -0.27469E-04 10752   0.248E-03-0.603E-05
CGA:  29    -0.933853778464E+02   -0.22709E-04   -0.22498E-04 10752   0.130E-03-0.527E-05
CGA:  30    -0.933854012062E+02   -0.23360E-04   -0.23715E-04 10752   0.785E-04-0.561E-05
CGA:  31    -0.933854037721E+02   -0.25659E-05   -0.25721E-05 10752   0.452E-04 0.346E-06
CGA:  32    -0.933854136132E+02   -0.98411E-05   -0.94586E-05 10752   0.187E-04 0.474E-05
CGA:  33    -0.933854157890E+02   -0.21758E-05   -0.21665E-05 10752   0.235E-04-0.185E-06
CGA:  34    -0.933854169532E+02   -0.11642E-05   -0.11067E-05 10752   0.197E-04-0.567E-06
CGA:  35    -0.933854190945E+02   -0.21414E-05   -0.21127E-05 10752   0.508E-05-0.216E-05
CGA:  36    -0.933854195423E+02   -0.44772E-06   -0.44362E-06 10752   0.675E-05-0.885E-07
   1 F= -.93385420E+02 E0= -.93383302E+02  d E =-.933854E+02  mag=    26.0589
       N       E                     dE             d eps       ncg     rms          ort
SDA:   1    -0.933820925318E+02    0.33266E-02    0.00000E+00 10752   0.866E-02 0.000E+00
CGA:   2    -0.933841720641E+02   -0.20795E-02   -0.20798E-02 10752   0.583E-02-0.223E-05
CGA:   3    -0.933848484404E+02   -0.67638E-03   -0.67635E-03 10752   0.336E-02-0.259E-05
CGA:   4    -0.933851696014E+02   -0.32116E-03   -0.32116E-03 10752   0.444E-02-0.315E-06
CGA:   5    -0.933853195913E+02   -0.14999E-03   -0.15000E-03 10752   0.486E-03-0.228E-06
CGA:   6    -0.933853744648E+02   -0.54874E-04   -0.54877E-04 10752   0.307E-03 0.576E-06
CGA:   7    -0.933854197244E+02   -0.45260E-04   -0.45242E-04 10752   0.543E-04 0.570E-06
CGA:   8    -0.933854332109E+02   -0.13487E-04   -0.13515E-04 10752   0.466E-04-0.226E-06
CGA:   9    -0.933854349044E+02   -0.16935E-05   -0.16919E-05 10752   0.275E-04-0.198E-07
CGA:  10    -0.933854377084E+02   -0.28040E-05   -0.28045E-05 10752   0.151E-04 0.232E-07
CGA:  11    -0.933854394079E+02   -0.16994E-05   -0.17010E-05 10752   0.369E-05 0.663E-07
CGA:  12    -0.933854399586E+02   -0.55075E-06   -0.55010E-06 10752   0.437E-05 0.235E-07
   2 F= -.93385440E+02 E0= -.93383320E+02  d E =-.204164E-04  mag=    26.0599
       N       E                     dE             d eps       ncg     rms          ort
SDA:   1    -0.933537290651E+02    0.31710E-01    0.00000E+00 10752   0.155E+00 0.000E+00
CGA:   2    -0.933594356817E+02   -0.57066E-02   -0.57179E-02 10752   0.113E+00-0.291E-03
CGA:   3    -0.933767624144E+02   -0.17327E-01   -0.17327E-01 10752   0.355E-01-0.578E-05
CGA:   4    -0.933813754857E+02   -0.46131E-02   -0.46135E-02 10752   0.326E-01-0.178E-04
CGA:   5    -0.933833861025E+02   -0.20106E-02   -0.20104E-02 10752   0.286E-01 0.275E-05
CGA:   6    -0.933845253955E+02   -0.11393E-02   -0.11412E-02 10752   0.273E-02-0.317E-04
CGA:   7    -0.933850610450E+02   -0.53565E-03   -0.53566E-03 10752   0.200E-02-0.254E-06
CGA:   8    -0.933851954569E+02   -0.13441E-03   -0.13438E-03 10752   0.173E-02-0.421E-06
CGA:   9    -0.933852626395E+02   -0.67183E-04   -0.67169E-04 10752   0.478E-03-0.101E-06
CGA:  10    -0.933853508867E+02   -0.88247E-04   -0.88215E-04 10752   0.155E-03 0.453E-06
CGA:  11    -0.933853664736E+02   -0.15587E-04   -0.15591E-04 10752   0.329E-03 0.320E-06
CGA:  12    -0.933853826927E+02   -0.16219E-04   -0.16241E-04 10752   0.763E-04 0.381E-06
CGA:  13    -0.933853887431E+02   -0.60504E-05   -0.60530E-05 10752   0.228E-04 0.148E-06
CGA:  14    -0.933853930407E+02   -0.42976E-05   -0.43038E-05 10752   0.358E-04-0.495E-07
CGA:  15    -0.933853940619E+02   -0.10212E-05   -0.10197E-05 10752   0.591E-05-0.111E-08
CGA:  16    -0.933853950040E+02   -0.94210E-06   -0.93979E-06 10752   0.465E-05 0.673E-07
   3 F= -.93385395E+02 E0= -.93383274E+02  d E =0.245382E-04  mag=    26.0605
       N       E                     dE             d eps       ncg     rms          ort
SDA:   1    -0.933834512119E+02    0.19429E-02    0.00000E+00 10752   0.156E-01 0.000E+00
CGA:   2    -0.933838730622E+02   -0.42185E-03   -0.42157E-03 10752   0.497E-02 0.703E-05
CGA:   3    -0.933849623297E+02   -0.10893E-02   -0.10892E-02 10752   0.157E-02 0.739E-06
CGA:   4    -0.933852707257E+02   -0.30840E-03   -0.30835E-03 10752   0.292E-02 0.205E-06
CGA:   5    -0.933853506014E+02   -0.79876E-04   -0.79896E-04 10752   0.234E-03-0.498E-06
CGA:   6    -0.933853910181E+02   -0.40417E-04   -0.40444E-04 10752   0.183E-03-0.432E-06
CGA:   7    -0.933854068204E+02   -0.15802E-04   -0.15802E-04 10752   0.997E-04-0.837E-07
CGA:   8    -0.933854103290E+02   -0.35087E-05   -0.35093E-05 10752   0.459E-04 0.339E-07
CGA:   9    -0.933854166121E+02   -0.62831E-05   -0.62797E-05 10752   0.219E-04 0.133E-06
CGA:  10    -0.933854187270E+02   -0.21149E-05   -0.21156E-05 10752   0.121E-04 0.463E-07
CGA:  11    -0.933854194425E+02   -0.71552E-06   -0.71509E-06 10752   0.155E-04 0.324E-08
CGA:  12    -0.933854205882E+02   -0.11457E-05   -0.11467E-05 10752   0.159E-05 0.161E-08
CGA:  13    -0.933854210163E+02   -0.42813E-06   -0.44236E-06 10752   0.137E-05-0.657E-07
   4 F= -.93385421E+02 E0= -.93383300E+02  d E =-.147406E-05  mag=    26.0604
       N       E                     dE             d eps       ncg     rms          ort
SDA:   1    -0.933810690398E+02    0.43515E-02    0.00000E+00 10752   0.137E-01 0.000E+00
CGA:   2    -0.933821065221E+02   -0.10375E-02   -0.10373E-02 10752   0.279E-01-0.614E-05
CGA:   3    -0.933842325123E+02   -0.21260E-02   -0.21260E-02 10752   0.424E-02-0.117E-05
CGA:   4    -0.933851050863E+02   -0.87257E-03   -0.87243E-03 10752   0.245E-02 0.139E-05
CGA:   5    -0.933852962304E+02   -0.19114E-03   -0.19112E-03 10752   0.664E-03-0.612E-07
CGA:   6    -0.933853325736E+02   -0.36343E-04   -0.36344E-04 10752   0.809E-03-0.206E-07
CGA:   7    -0.933853999869E+02   -0.67413E-04   -0.67416E-04 10752   0.207E-03 0.778E-07
CGA:   8    -0.933854195657E+02   -0.19579E-04   -0.19580E-04 10752   0.744E-04 0.123E-06
CGA:   9    -0.933854329861E+02   -0.13420E-04   -0.13417E-04 10752   0.101E-03 0.556E-07
CGA:  10    -0.933854358754E+02   -0.28893E-05   -0.28891E-05 10752   0.214E-04 0.422E-07
CGA:  11    -0.933854403538E+02   -0.44784E-05   -0.44783E-05 10752   0.615E-05 0.308E-08
CGA:  12    -0.933854410867E+02   -0.73289E-06   -0.73306E-06 10752   0.111E-04 0.119E-07
   5 F= -.93385441E+02 E0= -.93383320E+02  d E =-.215444E-04  mag=    26.0602
       N       E                     dE             d eps       ncg     rms          ort
SDA:   1    -0.933846447610E+02    0.79559E-03    0.00000E+00 10752   0.137E-01 0.000E+00
CGA:   2    -0.933849721946E+02   -0.32743E-03   -0.32724E-03 10752   0.197E-02 0.552E-05
CGA:   3    -0.933851445838E+02   -0.17239E-03   -0.17238E-03 10752   0.121E-02-0.741E-06
CGA:   4    -0.933853506480E+02   -0.20606E-03   -0.20607E-03 10752   0.361E-03-0.138E-06
CGA:   5    -0.933854069553E+02   -0.56307E-04   -0.56298E-04 10752   0.203E-03 0.167E-06
CGA:   6    -0.933854270838E+02   -0.20129E-04   -0.20129E-04 10752   0.537E-04-0.603E-07
CGA:   7    -0.933854293185E+02   -0.22347E-05   -0.22333E-05 10752   0.458E-04-0.286E-07
CGA:   8    -0.933854351847E+02   -0.58661E-05   -0.58670E-05 10752   0.689E-05-0.487E-07
CGA:   9    -0.933854367128E+02   -0.15282E-05   -0.15299E-05 10752   0.848E-05-0.860E-08
CGA:  10    -0.933854369872E+02   -0.27439E-06   -0.27568E-06 10752   0.326E-05 0.509E-08
   6 F= -.93385437E+02 E0= -.93383316E+02  d E =-.174450E-04  mag=    26.0602
