       N       E                     dE             d eps       ncg     rms          ort
DAV:   1     0.177210785188E+04    0.17721E+04   -0.91857E+04 10752   0.196E+03
DAV:   2     0.659014730684E+01   -0.17655E+04   -0.16732E+04 10752   0.479E+02
DAV:   3    -0.102364668657E+03   -0.10895E+03   -0.10715E+03 10752   0.127E+02
DAV:   4    -0.103997102861E+03   -0.16324E+01   -0.16320E+01 10752   0.155E+01
DAV:   5    -0.104030017499E+03   -0.32915E-01   -0.32914E-01 10752   0.214E+00
SDA:   6    -0.553338734005E+02    0.48696E+02   -0.32914E-01 10752   0.255E+03 0.000E+00
CGA:   7    -0.869395488001E+02   -0.31606E+02   -0.31305E+02 10752   0.181E+02 0.242E+01
CGA:   8    -0.896652449365E+02   -0.27257E+01   -0.27352E+01 10752   0.586E+02 0.231E-01
CGA:   9    -0.912522361113E+02   -0.15870E+01   -0.11075E+01 10752   0.130E+02 0.262E+02
CGA:  10    -0.916252055071E+02   -0.37297E+00   -0.40811E+00 10752   0.533E+01-0.156E+01
CGA:  11    -0.926625442713E+02   -0.10373E+01   -0.10355E+01 10752   0.654E+01 0.335E-01
CGA:  12    -0.928439518397E+02   -0.18141E+00   -0.17347E+00 10752   0.246E+01 0.337E+00
CGA:  13    -0.931706298244E+02   -0.32668E+00   -0.32653E+00 10752   0.158E+01 0.388E-03
CGA:  14    -0.932251952585E+02   -0.54565E-01   -0.56179E-01 10752   0.958E+00-0.397E-01
CGA:  15    -0.932803400684E+02   -0.55145E-01   -0.55935E-01 10752   0.352E+00-0.905E-02
CGA:  16    -0.933167459227E+02   -0.36406E-01   -0.36790E-01 10752   0.646E+00 0.304E-05
CGA:  17    -0.933376835625E+02   -0.20938E-01   -0.21156E-01 10752   0.110E+00-0.757E-02
CGA:  18    -0.933509701697E+02   -0.13287E-01   -0.13299E-01 10752   0.131E+00-0.146E-04
CGA:  19    -0.933583704779E+02   -0.74003E-02   -0.74809E-02 10752   0.170E+00-0.113E-02
CGA:  20    -0.933697006700E+02   -0.11330E-01   -0.11345E-01 10752   0.257E-01-0.344E-03
CGA:  21    -0.933734195175E+02   -0.37188E-02   -0.37184E-02 10752   0.119E+00 0.577E-04
CGA:  22    -0.933810536491E+02   -0.76341E-02   -0.76993E-02 10752   0.104E-01-0.363E-03
CGA:  23    -0.933822864124E+02   -0.12328E-02   -0.12327E-02 10752   0.335E-01-0.166E-04
CGA:  24    -0.933841003862E+02   -0.18140E-02   -0.18137E-02 10752   0.655E-02-0.118E-03
CGA:  25    -0.933846805454E+02   -0.58016E-03   -0.57789E-03 10752   0.396E-02-0.489E-04
CGA:  26    -0.933848615395E+02   -0.18099E-03   -0.17897E-03 10752   0.350E-02-0.192E-04
CGA:  27    -0.933851466838E+02   -0.28514E-03   -0.28327E-03 10752   0.869E-03-0.423E-04
CGA:  28    -0.933852399202E+02   -0.93236E-04   -0.93221E-04 10752   0.171E-02-0.271E-06
CGA:  29    -0.933853124796E+02   -0.72559E-04   -0.72856E-04 10752   0.671E-03 0.625E-05
CGA:  30    -0.933853743647E+02   -0.61885E-04   -0.62220E-04 10752   0.168E-03 0.140E-04
CGA:  31    -0.933853839159E+02   -0.95512E-05   -0.98287E-05 10752   0.272E-03 0.518E-05
CGA:  32    -0.933854190319E+02   -0.35116E-04   -0.34888E-04 10752   0.301E-04 0.212E-04
CGA:  33    -0.933854217148E+02   -0.26828E-05   -0.27187E-05 10752   0.768E-04 0.156E-05
CGA:  34    -0.933854283619E+02   -0.66471E-05   -0.67240E-05 10752   0.210E-04 0.289E-05
CGA:  35    -0.933854299212E+02   -0.15593E-05   -0.15561E-05 10752   0.174E-04 0.217E-06
CGA:  36    -0.933854306459E+02   -0.72469E-06   -0.69949E-06 10752   0.103E-04-0.724E-07
SDA:  37    -0.933854324866E+02   -0.18407E-05   -0.20970E-05 10752   0.856E-05-0.232E-05
CGA:  38    -0.933854329363E+02   -0.44964E-06   -0.44584E-06 10752   0.632E-05 0.148E-06
   1 F= -.93385433E+02 E0= -.93383311E+02  d E =-.933854E+02  mag=    26.0591
       N       E                     dE             d eps       ncg     rms          ort
SDA:   1    -0.933842563484E+02    0.11761E-02    0.00000E+00 10752   0.353E-02 0.000E+00
CGA:   2    -0.933846743868E+02   -0.41804E-03   -0.41807E-03 10752   0.825E-02-0.279E-05
CGA:   3    -0.933850451957E+02   -0.37081E-03   -0.37072E-03 10752   0.235E-02-0.372E-05
CGA:   4    -0.933852646834E+02   -0.21949E-03   -0.21947E-03 10752   0.893E-03-0.164E-05
CGA:   5    -0.933854009130E+02   -0.13623E-03   -0.13616E-03 10752   0.241E-03 0.141E-05
CGA:   6    -0.933854202217E+02   -0.19309E-04   -0.19322E-04 10752   0.184E-03 0.504E-06
CGA:   7    -0.933854277594E+02   -0.75377E-05   -0.75515E-05 10752   0.110E-03 0.182E-06
CGA:   8    -0.933854407054E+02   -0.12946E-04   -0.12940E-04 10752   0.158E-04 0.364E-06
CGA:   9    -0.933854447379E+02   -0.40325E-05   -0.40887E-05 10752   0.825E-05-0.358E-06
CGA:  10    -0.933854455477E+02   -0.80981E-06   -0.80856E-06 10752   0.772E-05-0.163E-07
   2 F= -.93385446E+02 E0= -.93383325E+02  d E =-.126114E-04  mag=    26.0603
       N       E                     dE             d eps       ncg     rms          ort
SDA:   1    -0.933852835854E+02    0.16115E-03    0.00000E+00 10752   0.341E-02 0.000E+00
CGA:   2    -0.933853776891E+02   -0.94104E-04   -0.94084E-04 10752   0.686E-03 0.412E-06
CGA:   3    -0.933854083706E+02   -0.30682E-04   -0.30680E-04 10752   0.104E-03-0.113E-06
CGA:   4    -0.933854340513E+02   -0.25681E-04   -0.25694E-04 10752   0.497E-04-0.982E-07
CGA:   5    -0.933854407219E+02   -0.66705E-05   -0.66693E-05 10752   0.295E-04 0.245E-07
CGA:   6    -0.933854428711E+02   -0.21492E-05   -0.21482E-05 10752   0.303E-04-0.290E-07
CGA:   7    -0.933854439338E+02   -0.10627E-05   -0.10614E-05 10752   0.258E-05-0.740E-08
CGA:   8    -0.933854445150E+02   -0.58115E-06   -0.57310E-06 10752   0.864E-06 0.632E-07
   3 F= -.93385445E+02 E0= -.93383324E+02  d E =-.115787E-04  mag=    26.0604
