       N       E                     dE             d eps       ncg     rms          rms(c)
DAV:   1     0.177426484509E+04    0.17743E+04   -0.84710E+04 43008   0.178E+03
DAV:   2     0.647117550713E+01   -0.17678E+04   -0.16754E+04 43008   0.479E+02
DAV:   3    -0.102366309156E+03   -0.10884E+03   -0.10706E+03 50464   0.127E+02
DAV:   4    -0.103997012802E+03   -0.16307E+01   -0.16301E+01 45696   0.155E+01
DAV:   5    -0.104029987878E+03   -0.32975E-01   -0.32972E-01 52928   0.214E+00    0.364E+01
DAV:   6    -0.101717482644E+03    0.23125E+01   -0.65593E+01 48544   0.520E+01    0.377E+01
DAV:   7    -0.952799131989E+02    0.64376E+01   -0.80694E+01 49408   0.384E+01    0.187E+01
DAV:   8    -0.944191366184E+02    0.86078E+00   -0.60699E+00 52416   0.141E+01    0.139E+01
DAV:   9    -0.946628291680E+02   -0.24369E+00   -0.11893E+01 52384   0.154E+01    0.161E+01
DAV:  10    -0.935784519072E+02    0.10844E+01   -0.62253E+00 51456   0.110E+01    0.729E+00
DAV:  11    -0.935902410807E+02   -0.11789E-01   -0.17986E+00 50048   0.864E+00    0.766E+00
DAV:  12    -0.933918410199E+02    0.19840E+00   -0.66359E-01 49952   0.525E+00    0.254E+00
DAV:  13    -0.934435337641E+02   -0.51693E-01   -0.39367E-01 50432   0.487E+00    0.406E+00
DAV:  14    -0.933840984036E+02    0.59435E-01   -0.18861E-01 50432   0.296E+00    0.619E-01
DAV:  15    -0.933859403060E+02   -0.18419E-02   -0.13097E-02 52064   0.674E-01    0.314E-01
DAV:  16    -0.933856039008E+02    0.33641E-03   -0.17927E-03 48992   0.245E-01    0.181E-01
DAV:  17    -0.933855050988E+02    0.98802E-04   -0.47773E-04 50528   0.158E-01    0.580E-02
DAV:  18    -0.933855851496E+02   -0.80051E-04   -0.71582E-05 51872   0.434E-02    0.326E-02
DAV:  19    -0.933856618940E+02   -0.76744E-04   -0.93873E-06 50272   0.270E-02    0.153E-02
DAV:  20    -0.933857176447E+02   -0.55751E-04   -0.64035E-07 39488   0.108E-02    0.744E-03
DAV:  21    -0.933857297184E+02   -0.12074E-04   -0.10820E-07 28672   0.683E-03    0.503E-03
DAV:  22    -0.933857345561E+02   -0.48377E-05   -0.55512E-07 26368   0.525E-03    0.237E-03
DAV:  23    -0.933857370513E+02   -0.24953E-05   -0.12403E-07 25536   0.193E-03    0.137E-03
DAV:  24    -0.933857385632E+02   -0.15119E-05   -0.33149E-08 25472   0.136E-03    0.462E-04
DAV:  25    -0.933857391919E+02   -0.62863E-06   -0.93504E-09 24544   0.585E-04
   1 F= -.93385739E+02 E0= -.93385739E+02  d E =0.000000E+00  mag=    25.8058
