 vasp.6.4.3 19Mar24 (build Mar 26 2024 14:05:37) complex                        
  
 executed on             LinuxIFC date 2024.12.16  07:31:06
 running  128 mpi-ranks, on    1 nodes
 distrk:  each k-point on   32 cores,    4 groups
 distr:  one band on NCORE=   1 cores,   32 groups


--------------------------------------------------------------------------------------------------------


 INCAR:
   ALGO = Normal
   EDIFF = 1e-06
   EDIFFG = -0.01
   ENCUT = 520
   GGA = Pe
   IBRION = -1
   ISIF = 4
   ISMEAR = -5
   ISPIN = 2
   KPAR = 4
   LCHARG = True
   LORBIT = 11
   LREAL = False
   LWAVE = False
   MAGMOM = 1*2.812 1*2.813 1*2.812 1*2.813 2*2.814 1*2.812 1*2.813 1*2.812 3*0.307
   NELM = 200
   NSW = 0
   PREC = Accurate
   SIGMA = 0.2

 POTCAR:    PAW_PBE Fe_pv 02Aug2007               
 POTCAR:    PAW_PBE Pt 04Feb2005                  
 -----------------------------------------------------------------------------
|                                                                             |
|           W    W    AA    RRRRR   N    N  II  N    N   GGGG   !!!           |
|           W    W   A  A   R    R  NN   N  II  NN   N  G    G  !!!           |
|           W    W  A    A  R    R  N N  N  II  N N  N  G       !!!           |
|           W WW W  AAAAAA  RRRRR   N  N N  II  N  N N  G  GGG   !            |
|           WW  WW  A    A  R   R   N   NN  II  N   NN  G    G                |
|           W    W  A    A  R    R  N    N  II  N    N   GGGG   !!!           |
|                                                                             |
|     For optimal performance we recommend to set                             |
|       NCORE = 2 up to number-of-cores-per-socket                            |
|     NCORE specifies how many cores store one orbital (NPAR=cpu/NCORE).      |
|     This setting can greatly improve the performance of VASP for DFT.       |
|     The default, NCORE=1 might be grossly inefficient on modern             |
|     multi-core architectures or massively parallel machines. Do your        |
|     own testing! More info at https://www.vasp.at/wiki/index.php/NCORE      |
|     Unfortunately you need to use the default for GW and RPA                |
|     calculations (for HF NCORE is supported but not extensively tested      |
|     yet).                                                                   |
|                                                                             |
 -----------------------------------------------------------------------------

 POTCAR:    PAW_PBE Fe_pv 02Aug2007               
   SHA256 =  5d22e414b1f82158bf2c7ecb8b97b28fd0923e48cadc1c3bf74d524558f5dd32 Fe_pv/POTCAR          
   COPYR  = (c) Copyright 02Aug2007 Georg Kresse                                                    
   COPYR  = This file is part of the software VASP. Any use, copying, and all other rights are regul
   COPYR  = If you do not have a valid VASP license, you may not use, copy or distribute this file. 
   VRHFIN =Fe:  3pd7s1                                                                              
   LEXCH  = PE                                                                                      
   EATOM  =  2457.4239 eV,  180.6156 Ry                                                             
                                                                                                    
   TITEL  = PAW_PBE Fe_pv 02Aug2007                                                                 
   LULTRA =        F    use ultrasoft PP ?                                                          
   IUNSCR =        1    unscreen: 0-lin 1-nonlin 2-no                                               
   RPACOR =    1.750    partial core radius                                                         
   POMASS =   55.847; ZVAL   =   14.000    mass and valenz                                          
   RCORE  =    2.200    outmost cutoff radius                                                       
   RWIGS  =    2.200; RWIGS  =    1.164    wigner-seitz radius (au A)                               
   ENMAX  =  293.238; ENMIN  =  219.928 eV                                                          
   ICORE  =        3    local potential                                                             
   LCOR   =        T    correct aug charges                                                         
   LPAW   =        T    paw PP                                                                      
   EAUG   =  578.342                                                                                
   DEXC   =    0.000                                                                                
   RMAX   =    2.249    core radius for proj-oper                                                   
   RAUG   =    1.300    factor for augmentation sphere                                              
   RDEP   =    2.296    radius for radial grids                                                     
   RDEPT  =    1.766    core radius for aug-charge                                                  
                                                                                                    
   Atomic configuration                                                                             
    8 entries                                                                                       
     n  l   j            E        occ.                                                              
     1  0  0.50     -6993.8440   2.0000                                                             
     2  0  0.50      -814.6047   2.0000                                                             
     2  1  1.50      -693.3689   6.0000                                                             
     3  0  0.50       -89.4732   2.0000                                                             
     3  1  1.50       -55.6373   6.0000                                                             
     3  2  2.50        -3.8151   7.0000                                                             
     4  0  0.50        -4.2551   1.0000                                                             
     4  3  2.50        -1.3606   0.0000                                                             
   Description                                                                                      
     l       E           TYP  RCUT    TYP  RCUT                                                     
     1    -55.6372668     23  2.000                                                                 
     1     -5.4423304     23  2.000                                                                 
     2     -3.8151096     23  2.200                                                                 
     2     -5.1756922     23  2.200                                                                 
     0     -4.2550951     23  2.200                                                                 
     0     27.2116520     23  2.200                                                                 
     3     -1.3605826     23  2.200                                                                 
  local pseudopotential read in
  partial core-charges read in
  partial kinetic energy density read in
  atomic valenz-charges read in
  non local Contribution for L=           1  read in
    real space projection operators read in
  non local Contribution for L=           1  read in
    real space projection operators read in
  non local Contribution for L=           2  read in
    real space projection operators read in
  non local Contribution for L=           2  read in
    real space projection operators read in
  non local Contribution for L=           0  read in
    real space projection operators read in
  non local Contribution for L=           0  read in
    real space projection operators read in
    PAW grid and wavefunctions read in
 
   number of l-projection  operators is LMAX  =           6
   number of lm-projection operators is LMMAX =          18
 
 POTCAR:    PAW_PBE Pt 04Feb2005                  
   SHA256 =  3ed90460adef76debcff1cfb73ee1349b515b1a3db03439735b44de3a8db7dc8 Pt/POTCAR             
   COPYR  = (c) Copyright 04Feb2005 Georg Kresse                                                    
   COPYR  = This file is part of the software VASP. Any use, copying, and all other rights are regul
   COPYR  = If you do not have a valid VASP license, you may not use, copy or distribute this file. 
   VRHFIN =Pt: s1d9                                                                                 
   LEXCH  = PE                                                                                      
   EATOM  =   729.1176 eV,   53.5886 Ry                                                             
                                                                                                    
   TITEL  = PAW_PBE Pt 04Feb2005                                                                    
   LULTRA =        F    use ultrasoft PP ?                                                          
   IUNSCR =        1    unscreen: 0-lin 1-nonlin 2-no                                               
   RPACOR =    2.330    partial core radius                                                         
   POMASS =  195.080; ZVAL   =   10.000    mass and valenz                                          
   RCORE  =    2.600    outmost cutoff radius                                                       
   RWIGS  =    2.750; RWIGS  =    1.455    wigner-seitz radius (au A)                               
   ENMAX  =  230.283; ENMIN  =  172.712 eV                                                          
   ICORE  =        3    local potential                                                             
   LCOR   =        T    correct aug charges                                                         
   LPAW   =        T    paw PP                                                                      
   EAUG   =  358.966                                                                                
   DEXC   =    0.000                                                                                
   RMAX   =    2.658    core radius for proj-oper                                                   
   RAUG   =    1.300    factor for augmentation sphere                                              
   RDEP   =    2.761    radius for radial grids                                                     
   RDEPT  =    2.203    core radius for aug-charge                                                  
                                                                                                    
   Atomic configuration                                                                             
   16 entries                                                                                       
     n  l   j            E        occ.                                                              
     1  0  0.50    -78401.1885   2.0000                                                             
     2  0  0.50    -13770.7750   2.0000                                                             
     2  1  1.50    -11931.0468   6.0000                                                             
     3  0  0.50     -3234.7234   2.0000                                                             
     3  1  1.50     -2699.2216   6.0000                                                             
     3  2  2.50     -2119.5714  10.0000                                                             
     4  0  0.50      -695.1528   2.0000                                                             
     4  1  1.50      -519.6034   6.0000                                                             
     4  2  2.50      -306.6786  10.0000                                                             
     4  3  3.50       -70.1041  14.0000                                                             
     5  0  0.50      -101.7747   2.0000                                                             
     5  1  1.50       -55.9873   6.0000                                                             
     5  2  2.50        -6.1423   9.0000                                                             
     6  0  0.50        -5.6573   1.0000                                                             
     6  1  1.50        -6.8029   0.0000                                                             
     5  3  2.50        -1.3606   0.0000                                                             
   Description                                                                                      
     l       E           TYP  RCUT    TYP  RCUT                                                     
     2     -6.1423404     23  2.500                                                                 
     2     -7.5029230     23  2.500                                                                 
     0     -5.6573207     23  2.500                                                                 
     0      0.7416693     23  2.500                                                                 
     1     -2.7211652     23  2.600                                                                 
     1     20.4087390     23  2.600                                                                 
     3     -1.3605826     23  2.500                                                                 
  local pseudopotential read in
  partial core-charges read in
  partial kinetic energy density read in
  atomic valenz-charges read in
  non local Contribution for L=           2  read in
    real space projection operators read in
  non local Contribution for L=           2  read in
    real space projection operators read in
  non local Contribution for L=           0  read in
    real space projection operators read in
  non local Contribution for L=           0  read in
    real space projection operators read in
  non local Contribution for L=           1  read in
    real space projection operators read in
  non local Contribution for L=           1  read in
    real space projection operators read in
    PAW grid and wavefunctions read in
 
   number of l-projection  operators is LMAX  =           6
   number of lm-projection operators is LMMAX =          18
 
  PAW_PBE Fe_pv 02Aug2007               :
 energy of atom  1       EATOM=-2457.4239
 kinetic energy error for atom=    0.0062 (will be added to EATOM!!)
  PAW_PBE Pt 04Feb2005                  :
 energy of atom  2       EATOM= -729.1176
 kinetic energy error for atom=    0.0032 (will be added to EATOM!!)
 
 
 POSCAR: Fe9 Pt3
  positions in direct lattice
  velocities in cartesian coordinates


 exchange-correlation table for PE
   RHO(1)=    0.500       N(1)  =     2000
   RHO(2)=  100.500       N(2)  =     4000
 


--------------------------------------------------------------------------------------------------------


 ion  position               nearest neighbor table
   1  0.000  0.500  0.167-   7 2.68   7 2.68   7 2.68   7 2.68  10 2.68   4 2.68  10 2.68   4 2.68
                            11 2.68  11 2.68   5 2.68   5 2.68
   2  0.000  0.500  0.500-   8 2.68   8 2.68   8 2.68   8 2.68   5 2.68   6 2.68   5 2.68   6 2.68
                            12 2.68  11 2.68  11 2.68  12 2.68
   3  0.000  0.500  0.833-   9 2.68   9 2.68   9 2.68   9 2.68  10 2.68   4 2.68  10 2.68   4 2.68
                            12 2.68  12 2.68   6 2.68   6 2.68
   4  0.500  0.500  0.000-  10 2.68  10 2.68  10 2.68  10 2.68   1 2.68   7 2.68   9 2.68   3 2.68
                             1 2.68   3 2.68   7 2.68   9 2.68
   5  0.500  0.500  0.333-  11 2.68  11 2.68  11 2.68  11 2.68   7 2.68   1 2.68   1 2.68   7 2.68
                             8 2.68   2 2.68   8 2.68   2 2.68
   6  0.500  0.500  0.667-  12 2.68  12 2.68  12 2.68  12 2.68   9 2.68   3 2.68   3 2.68   9 2.68
                             2 2.68   8 2.68   2 2.68   8 2.68
   7  0.500  0.000  0.167-   1 2.68   1 2.68   1 2.68   1 2.68   4 2.68  10 2.68  10 2.68   4 2.68
                            11 2.68  11 2.68   5 2.68   5 2.68
   8  0.500  0.000  0.500-   2 2.68   2 2.68   2 2.68   2 2.68   5 2.68   6 2.68   6 2.68   5 2.68
                            12 2.68  11 2.68  12 2.68  11 2.68
   9  0.500  0.000  0.833-   3 2.68   3 2.68   3 2.68   3 2.68   4 2.68  10 2.68  10 2.68   4 2.68
                            12 2.68  12 2.68   6 2.68   6 2.68
  10  0.000  0.000  0.000-   4 2.68   4 2.68   4 2.68   4 2.68   9 2.68   1 2.68   3 2.68   3 2.68
                             1 2.68   7 2.68   9 2.68   7 2.68
  11  0.000  0.000  0.333-   5 2.68   5 2.68   5 2.68   5 2.68   1 2.68   7 2.68   7 2.68   1 2.68
                             2 2.68   2 2.68   8 2.68   8 2.68
  12  0.000  0.000  0.667-   6 2.68   6 2.68   6 2.68   6 2.68   3 2.68   9 2.68   9 2.68   3 2.68
                             2 2.68   8 2.68   8 2.68   2 2.68
 
  LATTYP: Found a simple tetragonal cell.
 ALAT       =     3.7862382689
 C/A-ratio  =     3.0030584293
  
  Lattice vectors:
  
 A1 = (   3.7862382689,   0.0000000000,   0.0000000000)
 A2 = (   0.0000000000,   3.7862382689,   0.0000000000)
 A3 = (   0.0000000000,   0.0000000000,  11.3702947487)


Analysis of symmetry for initial positions (statically):
=====================================================================
 Subroutine PRICEL returns:
 Original cell was already a primitive cell.
 

 Routine SETGRP: Setting up the symmetry group for a 
 simple tetragonal supercell.


 Subroutine GETGRP returns: Found 16 space group operations
 (whereof 16 operations were pure point group operations)
 out of a pool of 16 trial point group operations.


The static configuration has the point symmetry D_4h.


Analysis of symmetry for dynamics (positions and initial velocities):
=====================================================================
 Subroutine PRICEL returns:
 Original cell was already a primitive cell.
 

 Routine SETGRP: Setting up the symmetry group for a 
 simple tetragonal supercell.


 Subroutine GETGRP returns: Found 16 space group operations
 (whereof 16 operations were pure point group operations)
 out of a pool of 16 trial point group operations.


The dynamic configuration has the point symmetry D_4h.


Analysis of structural, dynamic, and magnetic symmetry:
=====================================================================
 Subroutine PRICEL returns:
 Original cell was already a primitive cell.
 

 Routine SETGRP: Setting up the symmetry group for a 
 simple tetragonal supercell.


 Subroutine GETGRP returns: Found 16 space group operations
 (whereof 16 operations were pure point group operations)
 out of a pool of 16 trial point group operations.


The overall configuration has the point symmetry D_4h.


 Subroutine INISYM returns: Found 16 space group operations
 (whereof 16 operations are pure point group operations),
 and found     1 'primitive' translations


----------------------------------------------------------------------------------------

                                     Primitive cell                                     

  volume of cell :     163.0000

  direct lattice vectors                    reciprocal lattice vectors
     3.786238269  0.000000000  0.000000000     0.264114387  0.000000000  0.000000000
     0.000000000  3.786238269  0.000000000     0.000000000  0.264114387  0.000000000
     0.000000000  0.000000000 11.370294749     0.000000000  0.000000000  0.087948468

  length of vectors
     3.786238269  3.786238269 11.370294749     0.264114387  0.264114387  0.087948468

  position of ions in fractional coordinates (direct lattice)
     0.000000000  0.500000000  0.166618398
     0.000000000  0.500000000  0.500000000
     0.000000000  0.500000000  0.833381602
     0.500000000  0.500000000  0.000000000
     0.500000000  0.500000000  0.333302528
     0.500000000  0.500000000  0.666697472
     0.500000000  0.000000000  0.166618398
     0.500000000  0.000000000  0.500000000
     0.500000000  0.000000000  0.833381602
     0.000000000  0.000000000  0.000000000
     0.000000000  0.000000000  0.333296309
     0.000000000  0.000000000  0.666703691

  ion indices of the primitive-cell ions
   primitive index   ion index
                 1           1
                 2           2
                 3           3
                 4           4
                 5           5
                 6           6
                 7           7
                 8           8
                 9           9
                10          10
                11          11
                12          12

----------------------------------------------------------------------------------------

 
 
 KPOINTS: pymatgen with grid density = 8800 / numb

Automatic generation of k-mesh.
 Grid dimensions read from file:
 generate k-points for:   13   13    4

 Generating k-lattice:

  Cartesian coordinates                     Fractional coordinates (reciprocal lattice)
     0.020316491  0.000000000  0.000000000     0.076923077  0.000000000  0.000000000
     0.000000000  0.020316491  0.000000000     0.000000000  0.076923077  0.000000000
     0.000000000  0.000000000  0.021987117     0.000000000  0.000000000  0.250000000

  Length of vectors
     0.020316491  0.020316491  0.021987117

  Shift w.r.t. Gamma in fractional coordinates (k-lattice)
     0.000000000  0.000000000  0.000000000

 TETIRR: Found   1010 inequivalent tetrahedra from     4056
 
 Subroutine IBZKPT returns following result:
 ===========================================
 
 Found     84 irreducible k-points:
 
 Following reciprocal coordinates:
            Coordinates               Weight
  0.000000  0.000000  0.000000      1.000000
  0.076923  0.000000  0.000000      4.000000
  0.153846  0.000000  0.000000      4.000000
  0.230769  0.000000  0.000000      4.000000
  0.307692  0.000000  0.000000      4.000000
  0.384615  0.000000  0.000000      4.000000
  0.461538  0.000000  0.000000      4.000000
  0.076923  0.076923  0.000000      4.000000
  0.153846  0.076923  0.000000      8.000000
  0.230769  0.076923  0.000000      8.000000
  0.307692  0.076923  0.000000      8.000000
  0.384615  0.076923  0.000000      8.000000
  0.461538  0.076923  0.000000      8.000000
  0.153846  0.153846  0.000000      4.000000
  0.230769  0.153846  0.000000      8.000000
  0.307692  0.153846  0.000000      8.000000
  0.384615  0.153846  0.000000      8.000000
  0.461538  0.153846  0.000000      8.000000
  0.230769  0.230769  0.000000      4.000000
  0.307692  0.230769  0.000000      8.000000
  0.384615  0.230769  0.000000      8.000000
  0.461538  0.230769  0.000000      8.000000
  0.307692  0.307692  0.000000      4.000000
  0.384615  0.307692  0.000000      8.000000
  0.461538  0.307692  0.000000      8.000000
  0.384615  0.384615  0.000000      4.000000
  0.461538  0.384615  0.000000      8.000000
  0.461538  0.461538  0.000000      4.000000
  0.000000  0.000000  0.250000      2.000000
  0.076923  0.000000  0.250000      8.000000
  0.153846  0.000000  0.250000      8.000000
  0.230769  0.000000  0.250000      8.000000
  0.307692  0.000000  0.250000      8.000000
  0.384615  0.000000  0.250000      8.000000
  0.461538  0.000000  0.250000      8.000000
  0.076923  0.076923  0.250000      8.000000
  0.153846  0.076923  0.250000     16.000000
  0.230769  0.076923  0.250000     16.000000
  0.307692  0.076923  0.250000     16.000000
  0.384615  0.076923  0.250000     16.000000
  0.461538  0.076923  0.250000     16.000000
  0.153846  0.153846  0.250000      8.000000
  0.230769  0.153846  0.250000     16.000000
  0.307692  0.153846  0.250000     16.000000
  0.384615  0.153846  0.250000     16.000000
  0.461538  0.153846  0.250000     16.000000
  0.230769  0.230769  0.250000      8.000000
  0.307692  0.230769  0.250000     16.000000
  0.384615  0.230769  0.250000     16.000000
  0.461538  0.230769  0.250000     16.000000
  0.307692  0.307692  0.250000      8.000000
  0.384615  0.307692  0.250000     16.000000
  0.461538  0.307692  0.250000     16.000000
  0.384615  0.384615  0.250000      8.000000
  0.461538  0.384615  0.250000     16.000000
  0.461538  0.461538  0.250000      8.000000
  0.000000  0.000000  0.500000      1.000000
  0.076923  0.000000  0.500000      4.000000
  0.153846  0.000000  0.500000      4.000000
  0.230769  0.000000  0.500000      4.000000
  0.307692  0.000000  0.500000      4.000000
  0.384615  0.000000  0.500000      4.000000
  0.461538  0.000000  0.500000      4.000000
  0.076923  0.076923  0.500000      4.000000
  0.153846  0.076923  0.500000      8.000000
  0.230769  0.076923  0.500000      8.000000
  0.307692  0.076923  0.500000      8.000000
  0.384615  0.076923  0.500000      8.000000
  0.461538  0.076923  0.500000      8.000000
  0.153846  0.153846  0.500000      4.000000
  0.230769  0.153846  0.500000      8.000000
  0.307692  0.153846  0.500000      8.000000
  0.384615  0.153846  0.500000      8.000000
  0.461538  0.153846  0.500000      8.000000
  0.230769  0.230769  0.500000      4.000000
  0.307692  0.230769  0.500000      8.000000
  0.384615  0.230769  0.500000      8.000000
  0.461538  0.230769  0.500000      8.000000
  0.307692  0.307692  0.500000      4.000000
  0.384615  0.307692  0.500000      8.000000
  0.461538  0.307692  0.500000      8.000000
  0.384615  0.384615  0.500000      4.000000
  0.461538  0.384615  0.500000      8.000000
  0.461538  0.461538  0.500000      4.000000
 
 Following cartesian coordinates:
            Coordinates               Weight
  0.000000  0.000000  0.000000      1.000000
  0.020316  0.000000  0.000000      4.000000
  0.040633  0.000000  0.000000      4.000000
  0.060949  0.000000  0.000000      4.000000
  0.081266  0.000000  0.000000      4.000000
  0.101582  0.000000  0.000000      4.000000
  0.121899  0.000000  0.000000      4.000000
  0.020316  0.020316  0.000000      4.000000
  0.040633  0.020316  0.000000      8.000000
  0.060949  0.020316  0.000000      8.000000
  0.081266  0.020316  0.000000      8.000000
  0.101582  0.020316  0.000000      8.000000
  0.121899  0.020316  0.000000      8.000000
  0.040633  0.040633  0.000000      4.000000
  0.060949  0.040633  0.000000      8.000000
  0.081266  0.040633  0.000000      8.000000
  0.101582  0.040633  0.000000      8.000000
  0.121899  0.040633  0.000000      8.000000
  0.060949  0.060949  0.000000      4.000000
  0.081266  0.060949  0.000000      8.000000
  0.101582  0.060949  0.000000      8.000000
  0.121899  0.060949  0.000000      8.000000
  0.081266  0.081266  0.000000      4.000000
  0.101582  0.081266  0.000000      8.000000
  0.121899  0.081266  0.000000      8.000000
  0.101582  0.101582  0.000000      4.000000
  0.121899  0.101582  0.000000      8.000000
  0.121899  0.121899  0.000000      4.000000
  0.000000  0.000000  0.021987      2.000000
  0.020316  0.000000  0.021987      8.000000
  0.040633  0.000000  0.021987      8.000000
  0.060949  0.000000  0.021987      8.000000
  0.081266  0.000000  0.021987      8.000000
  0.101582  0.000000  0.021987      8.000000
  0.121899  0.000000  0.021987      8.000000
  0.020316  0.020316  0.021987      8.000000
  0.040633  0.020316  0.021987     16.000000
  0.060949  0.020316  0.021987     16.000000
  0.081266  0.020316  0.021987     16.000000
  0.101582  0.020316  0.021987     16.000000
  0.121899  0.020316  0.021987     16.000000
  0.040633  0.040633  0.021987      8.000000
  0.060949  0.040633  0.021987     16.000000
  0.081266  0.040633  0.021987     16.000000
  0.101582  0.040633  0.021987     16.000000
  0.121899  0.040633  0.021987     16.000000
  0.060949  0.060949  0.021987      8.000000
  0.081266  0.060949  0.021987     16.000000
  0.101582  0.060949  0.021987     16.000000
  0.121899  0.060949  0.021987     16.000000
  0.081266  0.081266  0.021987      8.000000
  0.101582  0.081266  0.021987     16.000000
  0.121899  0.081266  0.021987     16.000000
  0.101582  0.101582  0.021987      8.000000
  0.121899  0.101582  0.021987     16.000000
  0.121899  0.121899  0.021987      8.000000
  0.000000  0.000000  0.043974      1.000000
  0.020316  0.000000  0.043974      4.000000
  0.040633  0.000000  0.043974      4.000000
  0.060949  0.000000  0.043974      4.000000
  0.081266  0.000000  0.043974      4.000000
  0.101582  0.000000  0.043974      4.000000
  0.121899  0.000000  0.043974      4.000000
  0.020316  0.020316  0.043974      4.000000
  0.040633  0.020316  0.043974      8.000000
  0.060949  0.020316  0.043974      8.000000
  0.081266  0.020316  0.043974      8.000000
  0.101582  0.020316  0.043974      8.000000
  0.121899  0.020316  0.043974      8.000000
  0.040633  0.040633  0.043974      4.000000
  0.060949  0.040633  0.043974      8.000000
  0.081266  0.040633  0.043974      8.000000
  0.101582  0.040633  0.043974      8.000000
  0.121899  0.040633  0.043974      8.000000
  0.060949  0.060949  0.043974      4.000000
  0.081266  0.060949  0.043974      8.000000
  0.101582  0.060949  0.043974      8.000000
  0.121899  0.060949  0.043974      8.000000
  0.081266  0.081266  0.043974      4.000000
  0.101582  0.081266  0.043974      8.000000
  0.121899  0.081266  0.043974      8.000000
  0.101582  0.101582  0.043974      4.000000
  0.121899  0.101582  0.043974      8.000000
  0.121899  0.121899  0.043974      4.000000
 


--------------------------------------------------------------------------------------------------------




 Dimension of arrays:
   k-points           NKPTS =     84   k-points in BZ     NKDIM =     84   number of bands    NBANDS=    128
   number of dos      NEDOS =    301   number of ions     NIONS =     12
   non local maximal  LDIM  =      6   non local SUM 2l+1 LMDIM =     18
   total plane-waves  NPLWV =  70560
   max r-space proj   IRMAX =      1   max aug-charges    IRDMAX=  26415
   dimension x,y,z NGX =    28 NGY =   28 NGZ =   90
   dimension x,y,z NGXF=    56 NGYF=   56 NGZF=  180
   support grid    NGXF=    56 NGYF=   56 NGZF=  180
   ions per type =               9   3
   NGX,Y,Z   is equivalent  to a cutoff of  12.29, 12.29, 13.16 a.u.
   NGXF,Y,Z  is equivalent  to a cutoff of  24.59, 24.59, 26.32 a.u.

 SYSTEM =  unknown system                          
 POSCAR =  Fe9 Pt3                                 

 Startparameter for this run:
   NWRITE =      2    write-flag & timer
   PREC   = accura    normal or accurate (medium, high low for compatibility)
   ISTART =      0    job   : 0-new  1-cont  2-samecut
   ICHARG =      2    charge: 1-file 2-atom 10-const
   ISPIN  =      2    spin polarized calculation?
   LNONCOLLINEAR =      F non collinear calculations
   LSORBIT =      F    spin-orbit coupling
   INIWAV =      1    electr: 0-lowe 1-rand  2-diag
   LASPH  =      F    aspherical Exc in radial PAW
 Electronic Relaxation 1
   ENCUT  =  520.0 eV  38.22 Ry    6.18 a.u.   7.04  7.04 21.14*2*pi/ulx,y,z
   ENINI  =  520.0     initial cutoff
   ENAUG  =  578.3 eV  augmentation charge cutoff
   NELM   =    200;   NELMIN=  2; NELMDL=  0     # of ELM steps 
   EDIFF  = 0.1E-05   stopping-criterion for ELM
   LREAL  =      F    real-space projection
   NLSPLINE    = F    spline interpolate recip. space projectors
   LCOMPAT=      F    compatible to vasp.4.4
   GGA_COMPAT  = T    GGA compatible to vasp.4.4-vasp.4.6
   LMAXPAW     = -100 max onsite density
   LMAXMIX     =    2 max onsite mixed and CHGCAR
   VOSKOWN=      0    Vosko Wilk Nusair interpolation
   ROPT   =    0.00000   0.00000
 Ionic relaxation
   EDIFFG = -.1E-01   stopping-criterion for IOM
   NSW    =      0    number of steps for IOM
   NBLOCK =      1;   KBLOCK =      1    inner block; outer block 
   IBRION =     -1    ionic relax: 0-MD 1-quasi-New 2-CG
   NFREE  =      0    steps in history (QN), initial steepest desc. (CG)
   ISIF   =      4    stress and relaxation
   IWAVPR =     10    prediction:  0-non 1-charg 2-wave 3-comb
   ISYM   =      2    0-nonsym 1-usesym 2-fastsym
   LCORR  =      T    Harris-Foulkes like correction to forces

   POTIM  = 0.5000    time-step for ionic-motion
   TEIN   =    0.0    initial temperature
   TEBEG  =    0.0;   TEEND  =   0.0 temperature during run
   SMASS  =  -3.00    Nose mass-parameter (am)
   estimated Nose-frequenzy (Omega)   =  0.10E-29 period in steps = 0.13E+47 mass=  -0.328E-27a.u.
   SCALEE = 1.0000    scale energy and forces
   NPACO  =    256;   APACO  = 10.0  distance and # of slots for P.C.
   PSTRESS=    0.0 pullay stress

  Mass of Ions in am
   POMASS =  55.85195.08
  Ionic Valenz
   ZVAL   =  14.00 10.00
  Atomic Wigner-Seitz radii
   RWIGS  =  -1.00 -1.00
  virtual crystal weights 
   VCA    =   1.00  1.00
   NELECT =     156.0000    total number of electrons
   NUPDOWN=      -1.0000    fix difference up-down

 DOS related values:
   EMIN   =  10.00;   EMAX   =-10.00  energy-range for DOS
   EFERMI =   0.00;   METHOD = LEGACY      
   ISMEAR =    -5;   SIGMA  =   0.20  broadening in eV -4-tet -1-fermi 0-gaus

 Electronic relaxation 2 (details)
   IALGO  =     38    algorithm
   LDIAG  =      T    sub-space diagonalisation (order eigenvalues)
   LSUBROT=      F    optimize rotation matrix (better conditioning)
   TURBO    =      0    0=normal 1=particle mesh
   IRESTART =      0    0=no restart 2=restart with 2 vectors
   NREBOOT  =      0    no. of reboots
   NMIN     =      0    reboot dimension
   EREF     =   0.00    reference energy to select bands
   IMIX   =      4    mixing-type and parameters
     AMIX     =   0.40;   BMIX     =  1.00
     AMIX_MAG =   1.60;   BMIX_MAG =  1.00
     AMIN     =   0.10
     WC   =   100.;   INIMIX=   1;  MIXPRE=   1;  MAXMIX= -45

 Intra band minimization:
   WEIMIN = 0.0000     energy-eigenvalue tresh-hold
   EBREAK =  0.20E-08  absolut break condition
   DEPER  =   0.30     relativ break condition  

   TIME   =   0.40     timestep for ELM

  volume/ion in A,a.u.               =      13.58        91.66
  Fermi-wavevector in a.u.,A,eV,Ry     =   1.613320  3.048733 35.413260  2.602801
  Thomas-Fermi vector in A             =   2.708408
 
 Write flags
   LWAVE        =      F    write WAVECAR
   LDOWNSAMPLE  =      F    k-point downsampling of WAVECAR
   LCHARG       =      T    write CHGCAR
   LVTOT        =      F    write LOCPOT, total local potential
   LVHAR        =      F    write LOCPOT, Hartree potential only
   WRT_POTENTIAL= false  ! write potential to hdf5 file
   LELF         =      F    write electronic localiz. function (ELF)
   LORBIT       =     11    0 simple, 1 ext, 2 COOP (PROOUT), +10 PAW based schemes


 Dipole corrections
   LMONO      =      F    monopole corrections only (constant potential shift)
   LDIPOL     =      F    correct potential (dipole corrections)
   IDIPOL     =      0    1-x, 2-y, 3-z, 4-all directions 
   EPSILON    =  1.0000000 bulk dielectric constant
   LVACPOTAV  =      F  vacuum potentials using an averaging scheme for the charge density
   VACPOTFLAT =  0.1000000 required flatness to determine vacuum potential
 Exchange correlation treatment:
   GGA     = PE    functional components
   XC_C    = 1    coefficients multiplying the functional components
   LIBXC   =     F    Libxc                    
   VOSKOWN =     0    Vosko Wilk Nusair interpolation
   LHFCALC =     F    Hartree Fock is set to
   LHFONE  =     F    Hartree Fock one center treatment
   AEXX    =    0.0000 exact exchange contribution

 Parameters of functionals:
   PE:
     No parameter
 
 Van der Waals corrections
   IVDW    =     0    specifies the selected vdW correction

 Linear response parameters
   LEPSILON=     F    determine dielectric tensor
   LRPA    =     F    only Hartree local field effects (RPA)
   LNABLA  =     F    use nabla operator in PAW spheres
   LVEL    =     F    velocity operator in full k-point grid
   CSHIFT  =0.1000    complex shift for real part using Kramers Kronig
   OMEGAMAX=  -1.0    maximum frequency
   DEG_THRESHOLD= 0.2000000E-02 threshold for treating states as degnerate
   RTIME   =   -0.100 relaxation time in fs
  (WPLASMAI=    0.000 imaginary part of plasma frequency in eV, 0.658/RTIME)
   DFIELD  = 0.0000000 0.0000000 0.0000000 field for delta impulse in time
 
  Optional k-point grid parameters
   LKPOINTS_OPT  =     F    use optional k-point grid
   KPOINTS_OPT_MODE=     1    mode for optional k-point grid
 
 Orbital magnetization related:
   ORBITALMAG=     F  switch on orbital magnetization
   LCHIMAG   =     F  perturbation theory with respect to B field
   DQ        =  0.001000  dq finite difference perturbation B field
   LLRAUG    =     F  two centre corrections for induced B field
   LBONE     =     F  B-component reconstruction in AE one-centre
   LVGVCALC  =     T  calculate vGv susceptibility
   LVGVAPPL  =     F  apply vGv susceptibility instead of pGv for G=0

 Random number generation:
   RANDOM_GENERATOR = DEFAULT
   PCG_SEED         = not used


--------------------------------------------------------------------------------------------------------


 Static calculation
 charge density and potential will be updated during run
 spin polarized calculation
 Variant of blocked Davidson
 Davidson routine will perform the subspace rotation
 perform sub-space diagonalisation
    after iterative eigenvector-optimisation
 modified Broyden-mixing scheme, WC =      100.0
 initial mixing is a Kerker type mixing with AMIX =  0.4000 and BMIX =      1.0000
 Hartree-type preconditioning will be used
 using additional bands           50
 reciprocal scheme for non local part
 use partial core corrections
 calculate Harris-corrections to forces 
   (improved forces if not selfconsistent)
 use gradient corrections 
 use of overlap-Matrix (Vanderbilt PP)
 Fermi weights with tetrahedron method with Bloechl corrections


--------------------------------------------------------------------------------------------------------


  energy-cutoff  :      520.00
  volume of cell :      163.00
      direct lattice vectors                 reciprocal lattice vectors
     3.786238269  0.000000000  0.000000000     0.264114387  0.000000000  0.000000000
     0.000000000  3.786238269  0.000000000     0.000000000  0.264114387  0.000000000
     0.000000000  0.000000000 11.370294749     0.000000000  0.000000000  0.087948468

  length of vectors
     3.786238269  3.786238269 11.370294749     0.264114387  0.264114387  0.087948468


 
 k-points in units of 2pi/SCALE and weight: pymatgen with grid density = 8800 / numb
   0.00000000  0.00000000  0.00000000       0.001
   0.02031649  0.00000000  0.00000000       0.006
   0.04063298  0.00000000  0.00000000       0.006
   0.06094947  0.00000000  0.00000000       0.006
   0.08126597  0.00000000  0.00000000       0.006
   0.10158246  0.00000000  0.00000000       0.006
   0.12189895  0.00000000  0.00000000       0.006
   0.02031649  0.02031649  0.00000000       0.006
   0.04063298  0.02031649  0.00000000       0.012
   0.06094947  0.02031649  0.00000000       0.012
   0.08126597  0.02031649  0.00000000       0.012
   0.10158246  0.02031649  0.00000000       0.012
   0.12189895  0.02031649  0.00000000       0.012
   0.04063298  0.04063298  0.00000000       0.006
   0.06094947  0.04063298  0.00000000       0.012
   0.08126597  0.04063298  0.00000000       0.012
   0.10158246  0.04063298  0.00000000       0.012
   0.12189895  0.04063298  0.00000000       0.012
   0.06094947  0.06094947  0.00000000       0.006
   0.08126597  0.06094947  0.00000000       0.012
   0.10158246  0.06094947  0.00000000       0.012
   0.12189895  0.06094947  0.00000000       0.012
   0.08126597  0.08126597  0.00000000       0.006
   0.10158246  0.08126597  0.00000000       0.012
   0.12189895  0.08126597  0.00000000       0.012
   0.10158246  0.10158246  0.00000000       0.006
   0.12189895  0.10158246  0.00000000       0.012
   0.12189895  0.12189895  0.00000000       0.006
   0.00000000  0.00000000  0.02198712       0.003
   0.02031649  0.00000000  0.02198712       0.012
   0.04063298  0.00000000  0.02198712       0.012
   0.06094947  0.00000000  0.02198712       0.012
   0.08126597  0.00000000  0.02198712       0.012
   0.10158246  0.00000000  0.02198712       0.012
   0.12189895  0.00000000  0.02198712       0.012
   0.02031649  0.02031649  0.02198712       0.012
   0.04063298  0.02031649  0.02198712       0.024
   0.06094947  0.02031649  0.02198712       0.024
   0.08126597  0.02031649  0.02198712       0.024
   0.10158246  0.02031649  0.02198712       0.024
   0.12189895  0.02031649  0.02198712       0.024
   0.04063298  0.04063298  0.02198712       0.012
   0.06094947  0.04063298  0.02198712       0.024
   0.08126597  0.04063298  0.02198712       0.024
   0.10158246  0.04063298  0.02198712       0.024
   0.12189895  0.04063298  0.02198712       0.024
   0.06094947  0.06094947  0.02198712       0.012
   0.08126597  0.06094947  0.02198712       0.024
   0.10158246  0.06094947  0.02198712       0.024
   0.12189895  0.06094947  0.02198712       0.024
   0.08126597  0.08126597  0.02198712       0.012
   0.10158246  0.08126597  0.02198712       0.024
   0.12189895  0.08126597  0.02198712       0.024
   0.10158246  0.10158246  0.02198712       0.012
   0.12189895  0.10158246  0.02198712       0.024
   0.12189895  0.12189895  0.02198712       0.012
   0.00000000  0.00000000  0.04397423       0.001
   0.02031649  0.00000000  0.04397423       0.006
   0.04063298  0.00000000  0.04397423       0.006
   0.06094947  0.00000000  0.04397423       0.006
   0.08126597  0.00000000  0.04397423       0.006
   0.10158246  0.00000000  0.04397423       0.006
   0.12189895  0.00000000  0.04397423       0.006
   0.02031649  0.02031649  0.04397423       0.006
   0.04063298  0.02031649  0.04397423       0.012
   0.06094947  0.02031649  0.04397423       0.012
   0.08126597  0.02031649  0.04397423       0.012
   0.10158246  0.02031649  0.04397423       0.012
   0.12189895  0.02031649  0.04397423       0.012
   0.04063298  0.04063298  0.04397423       0.006
   0.06094947  0.04063298  0.04397423       0.012
   0.08126597  0.04063298  0.04397423       0.012
   0.10158246  0.04063298  0.04397423       0.012
   0.12189895  0.04063298  0.04397423       0.012
   0.06094947  0.06094947  0.04397423       0.006
   0.08126597  0.06094947  0.04397423       0.012
   0.10158246  0.06094947  0.04397423       0.012
   0.12189895  0.06094947  0.04397423       0.012
   0.08126597  0.08126597  0.04397423       0.006
   0.10158246  0.08126597  0.04397423       0.012
   0.12189895  0.08126597  0.04397423       0.012
   0.10158246  0.10158246  0.04397423       0.006
   0.12189895  0.10158246  0.04397423       0.012
   0.12189895  0.12189895  0.04397423       0.006
 
 k-points in reciprocal lattice and weights: pymatgen with grid density = 8800 / numb
   0.00000000  0.00000000  0.00000000       0.001
   0.07692308  0.00000000  0.00000000       0.006
   0.15384615  0.00000000  0.00000000       0.006
   0.23076923  0.00000000  0.00000000       0.006
   0.30769231  0.00000000  0.00000000       0.006
   0.38461538  0.00000000  0.00000000       0.006
   0.46153846  0.00000000  0.00000000       0.006
   0.07692308  0.07692308  0.00000000       0.006
   0.15384615  0.07692308  0.00000000       0.012
   0.23076923  0.07692308  0.00000000       0.012
   0.30769231  0.07692308  0.00000000       0.012
   0.38461538  0.07692308  0.00000000       0.012
   0.46153846  0.07692308  0.00000000       0.012
   0.15384615  0.15384615  0.00000000       0.006
   0.23076923  0.15384615  0.00000000       0.012
   0.30769231  0.15384615  0.00000000       0.012
   0.38461538  0.15384615  0.00000000       0.012
   0.46153846  0.15384615  0.00000000       0.012
   0.23076923  0.23076923  0.00000000       0.006
   0.30769231  0.23076923  0.00000000       0.012
   0.38461538  0.23076923  0.00000000       0.012
   0.46153846  0.23076923  0.00000000       0.012
   0.30769231  0.30769231  0.00000000       0.006
   0.38461538  0.30769231  0.00000000       0.012
   0.46153846  0.30769231  0.00000000       0.012
   0.38461538  0.38461538  0.00000000       0.006
   0.46153846  0.38461538  0.00000000       0.012
   0.46153846  0.46153846  0.00000000       0.006
   0.00000000  0.00000000  0.25000000       0.003
   0.07692308  0.00000000  0.25000000       0.012
   0.15384615  0.00000000  0.25000000       0.012
   0.23076923  0.00000000  0.25000000       0.012
   0.30769231  0.00000000  0.25000000       0.012
   0.38461538  0.00000000  0.25000000       0.012
   0.46153846  0.00000000  0.25000000       0.012
   0.07692308  0.07692308  0.25000000       0.012
   0.15384615  0.07692308  0.25000000       0.024
   0.23076923  0.07692308  0.25000000       0.024
   0.30769231  0.07692308  0.25000000       0.024
   0.38461538  0.07692308  0.25000000       0.024
   0.46153846  0.07692308  0.25000000       0.024
   0.15384615  0.15384615  0.25000000       0.012
   0.23076923  0.15384615  0.25000000       0.024
   0.30769231  0.15384615  0.25000000       0.024
   0.38461538  0.15384615  0.25000000       0.024
   0.46153846  0.15384615  0.25000000       0.024
   0.23076923  0.23076923  0.25000000       0.012
   0.30769231  0.23076923  0.25000000       0.024
   0.38461538  0.23076923  0.25000000       0.024
   0.46153846  0.23076923  0.25000000       0.024
   0.30769231  0.30769231  0.25000000       0.012
   0.38461538  0.30769231  0.25000000       0.024
   0.46153846  0.30769231  0.25000000       0.024
   0.38461538  0.38461538  0.25000000       0.012
   0.46153846  0.38461538  0.25000000       0.024
   0.46153846  0.46153846  0.25000000       0.012
   0.00000000  0.00000000  0.50000000       0.001
   0.07692308  0.00000000  0.50000000       0.006
   0.15384615  0.00000000  0.50000000       0.006
   0.23076923  0.00000000  0.50000000       0.006
   0.30769231  0.00000000  0.50000000       0.006
   0.38461538  0.00000000  0.50000000       0.006
   0.46153846  0.00000000  0.50000000       0.006
   0.07692308  0.07692308  0.50000000       0.006
   0.15384615  0.07692308  0.50000000       0.012
   0.23076923  0.07692308  0.50000000       0.012
   0.30769231  0.07692308  0.50000000       0.012
   0.38461538  0.07692308  0.50000000       0.012
   0.46153846  0.07692308  0.50000000       0.012
   0.15384615  0.15384615  0.50000000       0.006
   0.23076923  0.15384615  0.50000000       0.012
   0.30769231  0.15384615  0.50000000       0.012
   0.38461538  0.15384615  0.50000000       0.012
   0.46153846  0.15384615  0.50000000       0.012
   0.23076923  0.23076923  0.50000000       0.006
   0.30769231  0.23076923  0.50000000       0.012
   0.38461538  0.23076923  0.50000000       0.012
   0.46153846  0.23076923  0.50000000       0.012
   0.30769231  0.30769231  0.50000000       0.006
   0.38461538  0.30769231  0.50000000       0.012
   0.46153846  0.30769231  0.50000000       0.012
   0.38461538  0.38461538  0.50000000       0.006
   0.46153846  0.38461538  0.50000000       0.012
   0.46153846  0.46153846  0.50000000       0.006
 
 position of ions in fractional coordinates (direct lattice) 
   0.00000000  0.50000000  0.16661840
   0.00000000  0.50000000  0.50000000
   0.00000000  0.50000000  0.83338160
   0.50000000  0.50000000  0.00000000
   0.50000000  0.50000000  0.33330253
   0.50000000  0.50000000  0.66669747
   0.50000000  0.00000000  0.16661840
   0.50000000  0.00000000  0.50000000
   0.50000000  0.00000000  0.83338160
   0.00000000  0.00000000  0.00000000
   0.00000000  0.00000000  0.33329631
   0.00000000  0.00000000  0.66670369
 
 position of ions in cartesian coordinates  (Angst):
   0.00000000  1.89311913  1.89450030
   0.00000000  1.89311913  5.68514737
   0.00000000  1.89311913  9.47579445
   1.89311913  1.89311913  0.00000000
   1.89311913  1.89311913  3.78974798
   1.89311913  1.89311913  7.58054677
   1.89311913  0.00000000  1.89450030
   1.89311913  0.00000000  5.68514737
   1.89311913  0.00000000  9.47579445
   0.00000000  0.00000000  0.00000000
   0.00000000  0.00000000  3.78967727
   0.00000000  0.00000000  7.58061748
 


--------------------------------------------------------------------------------------------------------


 k-point     1 :   0.0000 0.0000 0.0000  plane waves:    4335
 k-point     2 :   0.0769 0.0000 0.0000  plane waves:    4364
 k-point     3 :   0.1538 0.0000 0.0000  plane waves:    4368
 k-point     4 :   0.2308 0.0000 0.0000  plane waves:    4356
 k-point     5 :   0.3077 0.0000 0.0000  plane waves:    4372
 k-point     6 :   0.3846 0.0000 0.0000  plane waves:    4392
 k-point     7 :   0.4615 0.0000 0.0000  plane waves:    4392
 k-point     8 :   0.0769 0.0769 0.0000  plane waves:    4360
 k-point     9 :   0.1538 0.0769 0.0000  plane waves:    4367
 k-point    10 :   0.2308 0.0769 0.0000  plane waves:    4382
 k-point    11 :   0.3077 0.0769 0.0000  plane waves:    4381
 k-point    12 :   0.3846 0.0769 0.0000  plane waves:    4392
 k-point    13 :   0.4615 0.0769 0.0000  plane waves:    4390
 k-point    14 :   0.1538 0.1538 0.0000  plane waves:    4366
 k-point    15 :   0.2308 0.1538 0.0000  plane waves:    4374
 k-point    16 :   0.3077 0.1538 0.0000  plane waves:    4386
 k-point    17 :   0.3846 0.1538 0.0000  plane waves:    4392
 k-point    18 :   0.4615 0.1538 0.0000  plane waves:    4404
 k-point    19 :   0.2308 0.2308 0.0000  plane waves:    4398
 k-point    20 :   0.3077 0.2308 0.0000  plane waves:    4377
 k-point    21 :   0.3846 0.2308 0.0000  plane waves:    4401
 k-point    22 :   0.4615 0.2308 0.0000  plane waves:    4409
 k-point    23 :   0.3077 0.3077 0.0000  plane waves:    4400
 k-point    24 :   0.3846 0.3077 0.0000  plane waves:    4408
 k-point    25 :   0.4615 0.3077 0.0000  plane waves:    4403
 k-point    26 :   0.3846 0.3846 0.0000  plane waves:    4402
 k-point    27 :   0.4615 0.3846 0.0000  plane waves:    4393
 k-point    28 :   0.4615 0.4615 0.0000  plane waves:    4408
 k-point    29 :   0.0000 0.0000 0.2500  plane waves:    4342
 k-point    30 :   0.0769 0.0000 0.2500  plane waves:    4339
 k-point    31 :   0.1538 0.0000 0.2500  plane waves:    4356
 k-point    32 :   0.2308 0.0000 0.2500  plane waves:    4379
 k-point    33 :   0.3077 0.0000 0.2500  plane waves:    4385
 k-point    34 :   0.3846 0.0000 0.2500  plane waves:    4392
 k-point    35 :   0.4615 0.0000 0.2500  plane waves:    4402
 k-point    36 :   0.0769 0.0769 0.2500  plane waves:    4355
 k-point    37 :   0.1538 0.0769 0.2500  plane waves:    4362
 k-point    38 :   0.2308 0.0769 0.2500  plane waves:    4375
 k-point    39 :   0.3077 0.0769 0.2500  plane waves:    4388
 k-point    40 :   0.3846 0.0769 0.2500  plane waves:    4397
 k-point    41 :   0.4615 0.0769 0.2500  plane waves:    4393
 k-point    42 :   0.1538 0.1538 0.2500  plane waves:    4378
 k-point    43 :   0.2308 0.1538 0.2500  plane waves:    4387
 k-point    44 :   0.3077 0.1538 0.2500  plane waves:    4390
 k-point    45 :   0.3846 0.1538 0.2500  plane waves:    4401
 k-point    46 :   0.4615 0.1538 0.2500  plane waves:    4402
 k-point    47 :   0.2308 0.2308 0.2500  plane waves:    4392
 k-point    48 :   0.3077 0.2308 0.2500  plane waves:    4398
 k-point    49 :   0.3846 0.2308 0.2500  plane waves:    4406
 k-point    50 :   0.4615 0.2308 0.2500  plane waves:    4410
 k-point    51 :   0.3077 0.3077 0.2500  plane waves:    4399
 k-point    52 :   0.3846 0.3077 0.2500  plane waves:    4395
 k-point    53 :   0.4615 0.3077 0.2500  plane waves:    4405
 k-point    54 :   0.3846 0.3846 0.2500  plane waves:    4396
 k-point    55 :   0.4615 0.3846 0.2500  plane waves:    4395
 k-point    56 :   0.4615 0.4615 0.2500  plane waves:    4393
 k-point    57 :   0.0000 0.0000 0.5000  plane waves:    4338
 k-point    58 :   0.0769 0.0000 0.5000  plane waves:    4344
 k-point    59 :   0.1538 0.0000 0.5000  plane waves:    4344
 k-point    60 :   0.2308 0.0000 0.5000  plane waves:    4364
 k-point    61 :   0.3077 0.0000 0.5000  plane waves:    4396
 k-point    62 :   0.3846 0.0000 0.5000  plane waves:    4394
 k-point    63 :   0.4615 0.0000 0.5000  plane waves:    4404
 k-point    64 :   0.0769 0.0769 0.5000  plane waves:    4350
 k-point    65 :   0.1538 0.0769 0.5000  plane waves:    4352
 k-point    66 :   0.2308 0.0769 0.5000  plane waves:    4380
 k-point    67 :   0.3077 0.0769 0.5000  plane waves:    4392
 k-point    68 :   0.3846 0.0769 0.5000  plane waves:    4398
 k-point    69 :   0.4615 0.0769 0.5000  plane waves:    4400
 k-point    70 :   0.1538 0.1538 0.5000  plane waves:    4386
 k-point    71 :   0.2308 0.1538 0.5000  plane waves:    4402
 k-point    72 :   0.3077 0.1538 0.5000  plane waves:    4400
 k-point    73 :   0.3846 0.1538 0.5000  plane waves:    4402
 k-point    74 :   0.4615 0.1538 0.5000  plane waves:    4394
 k-point    75 :   0.2308 0.2308 0.5000  plane waves:    4388
 k-point    76 :   0.3077 0.2308 0.5000  plane waves:    4394
 k-point    77 :   0.3846 0.2308 0.5000  plane waves:    4410
 k-point    78 :   0.4615 0.2308 0.5000  plane waves:    4402
 k-point    79 :   0.3077 0.3077 0.5000  plane waves:    4394
 k-point    80 :   0.3846 0.3077 0.5000  plane waves:    4394
 k-point    81 :   0.4615 0.3077 0.5000  plane waves:    4404
 k-point    82 :   0.3846 0.3846 0.5000  plane waves:    4400
 k-point    83 :   0.4615 0.3846 0.5000  plane waves:    4400
 k-point    84 :   0.4615 0.4615 0.5000  plane waves:    4400

 maximum and minimum number of plane-waves per node :      4410     4335

 maximum number of plane-waves:      4410
 maximum index in each direction: 
   IXMAX=    7   IYMAX=    7   IZMAX=   21
   IXMIN=   -7   IYMIN=   -7   IZMIN=  -21


 serial   3D FFT for wavefunctions
 parallel 3D FFT for charge:
    minimum data exchange during FFTs selected (reduces bandwidth)


 total amount of memory used by VASP MPI-rank0   196193. kBytes
=======================================================================

   base      :      30000. kBytes
   nonl-proj :     107679. kBytes
   fftplans  :        955. kBytes
   grid      :       7297. kBytes
   one-center:        373. kBytes
   wavefun   :      49889. kBytes
 
     INWAV:  cpu time      0.0000: real time      0.0000
 Broyden mixing: mesh for mixing (old mesh)
   NGX = 15   NGY = 15   NGZ = 43
  (NGX  = 56   NGY  = 56   NGZ  =180)
  gives a total of   9675 points

 initial charge density was supplied:
 charge density of overlapping atoms calculated
 number of electron     156.0000000 magnetization      26.2360000
 keeping initial charge density in first step


--------------------------------------------------------------------------------------------------------


 Maximum index for augmentation-charges         1069 (set IRDMAX)


--------------------------------------------------------------------------------------------------------


 First call to EWALD:  gamma=   0.324
 Maximum number of real-space cells 4x 4x 2
 Maximum number of reciprocal cells 2x 2x 5

    FEWALD:  cpu time      0.0027: real time      0.0027


--------------------------------------- Ionic step        1  -------------------------------------------




--------------------------------------- Iteration      1(   1)  ---------------------------------------


    POTLOK:  cpu time      0.0286: real time      0.3364
    SETDIJ:  cpu time      0.0092: real time      0.0097
     EDDAV:  cpu time      6.1672: real time      6.2166
 BZINTS: Fermi energy:   22.593381;  156.000000 electrons
         Band energy: 0.450226E+03;  BLOECHL correction:   -0.062166
       DOS:  cpu time      0.1276: real time      0.1295
    --------------------------------------------
      LOOP:  cpu time      6.3327: real time      6.6923

 eigenvalue-minimisations  : 43008
 total energy-change (2. order) : 0.1774265E+04  (-0.8471049E+04)
 number of electron     156.0000000 magnetization      26.2360000
 augmentation part      156.0000000 magnetization      26.2360000

 Free energy of the ion-electron system (eV)
  ---------------------------------------------------
  alpha Z        PSCENC =      1044.11122432
  Ewald energy   TEWEN  =    -17829.52310473
  -Hartree energ DENC   =     -6126.66578712
  -exchange      EXHF   =         0.00000000
  -V(xc)+E(xc)   XCENC  =       655.88857665
  PAW double counting   =     20093.41991754   -20817.29517240
  entropy T*S    EENTRO =         0.00000000
  eigenvalues    EBANDS =       450.22624648
  atomic energy  EATOM  =     24304.10294433
  Solvation  Ediel_sol  =         0.00000000
  ---------------------------------------------------
  free energy    TOTEN  =      1774.26484509 eV

  energy without entropy =     1774.26484509  energy(sigma->0) =     1774.26484509


--------------------------------------------------------------------------------------------------------




--------------------------------------- Iteration      1(   2)  ---------------------------------------


     EDDAV:  cpu time      6.1111: real time      6.1678
 BZINTS: Fermi energy:   11.528104;  156.000000 electrons
         Band energy:-0.131757E+04;  BLOECHL correction:   -0.027961
       DOS:  cpu time      0.1285: real time      0.1297
    --------------------------------------------
      LOOP:  cpu time      6.2395: real time      6.2975

 eigenvalue-minimisations  : 43008
 total energy-change (2. order) :-0.1767794E+04  (-0.1675419E+04)
 number of electron     156.0000000 magnetization      26.2360000
 augmentation part      156.0000000 magnetization      26.2360000

 Free energy of the ion-electron system (eV)
  ---------------------------------------------------
  alpha Z        PSCENC =      1044.11122432
  Ewald energy   TEWEN  =    -17829.52310473
  -Hartree energ DENC   =     -6126.66578712
  -exchange      EXHF   =         0.00000000
  -V(xc)+E(xc)   XCENC  =       655.88857665
  PAW double counting   =     20093.41991754   -20817.29517240
  entropy T*S    EENTRO =         0.00000000
  eigenvalues    EBANDS =     -1317.56742309
  atomic energy  EATOM  =     24304.10294433
  Solvation  Ediel_sol  =         0.00000000
  ---------------------------------------------------
  free energy    TOTEN  =         6.47117551 eV

  energy without entropy =        6.47117551  energy(sigma->0) =        6.47117551


--------------------------------------------------------------------------------------------------------




--------------------------------------- Iteration      1(   3)  ---------------------------------------


     EDDAV:  cpu time      7.2723: real time      7.3273
 BZINTS: Fermi energy:   10.900552;  156.000000 electrons
         Band energy:-0.142640E+04;  BLOECHL correction:   -0.044601
       DOS:  cpu time      0.1288: real time      0.1298
    --------------------------------------------
      LOOP:  cpu time      7.4011: real time      7.4571

 eigenvalue-minimisations  : 50464
 total energy-change (2. order) :-0.1088375E+03  (-0.1070565E+03)
 number of electron     156.0000000 magnetization      26.2360000
 augmentation part      156.0000000 magnetization      26.2360000

 Free energy of the ion-electron system (eV)
  ---------------------------------------------------
  alpha Z        PSCENC =      1044.11122432
  Ewald energy   TEWEN  =    -17829.52310473
  -Hartree energ DENC   =     -6126.66578712
  -exchange      EXHF   =         0.00000000
  -V(xc)+E(xc)   XCENC  =       655.88857665
  PAW double counting   =     20093.41991754   -20817.29517240
  entropy T*S    EENTRO =         0.00000000
  eigenvalues    EBANDS =     -1426.40490776
  atomic energy  EATOM  =     24304.10294433
  Solvation  Ediel_sol  =         0.00000000
  ---------------------------------------------------
  free energy    TOTEN  =      -102.36630916 eV

  energy without entropy =     -102.36630916  energy(sigma->0) =     -102.36630916


--------------------------------------------------------------------------------------------------------




--------------------------------------- Iteration      1(   4)  ---------------------------------------


     EDDAV:  cpu time      6.5687: real time      6.6254
 BZINTS: Fermi energy:   10.895873;  156.000000 electrons
         Band energy:-0.142804E+04;  BLOECHL correction:   -0.044832
       DOS:  cpu time      0.2155: real time      0.2169
    --------------------------------------------
      LOOP:  cpu time      6.7842: real time      6.8422

 eigenvalue-minimisations  : 45696
 total energy-change (2. order) :-0.1630704E+01  (-0.1630111E+01)
 number of electron     156.0000000 magnetization      26.2360000
 augmentation part      156.0000000 magnetization      26.2360000

 Free energy of the ion-electron system (eV)
  ---------------------------------------------------
  alpha Z        PSCENC =      1044.11122432
  Ewald energy   TEWEN  =    -17829.52310473
  -Hartree energ DENC   =     -6126.66578712
  -exchange      EXHF   =         0.00000000
  -V(xc)+E(xc)   XCENC  =       655.88857665
  PAW double counting   =     20093.41991754   -20817.29517240
  entropy T*S    EENTRO =         0.00000000
  eigenvalues    EBANDS =     -1428.03561140
  atomic energy  EATOM  =     24304.10294433
  Solvation  Ediel_sol  =         0.00000000
  ---------------------------------------------------
  free energy    TOTEN  =      -103.99701280 eV

  energy without entropy =     -103.99701280  energy(sigma->0) =     -103.99701280


--------------------------------------------------------------------------------------------------------




--------------------------------------- Iteration      1(   5)  ---------------------------------------


     EDDAV:  cpu time      7.9754: real time      8.0362
 BZINTS: Fermi energy:   10.895830;  156.000000 electrons
         Band energy:-0.142807E+04;  BLOECHL correction:   -0.044833
       DOS:  cpu time      0.1270: real time      0.1280
    CHARGE:  cpu time      0.1582: real time      0.1593
    MIXING:  cpu time      0.0081: real time      0.0085
    --------------------------------------------
      LOOP:  cpu time      8.2686: real time      8.3319

 eigenvalue-minimisations  : 52928
 total energy-change (2. order) :-0.3297508E-01  (-0.3297241E-01)
 number of electron     156.0000014 magnetization      25.3639952
 augmentation part       79.4675835 magnetization      18.2653202

 Broyden mixing:
  rms(total) = 0.36441E+01    rms(broyden)= 0.36439E+01
  rms(prec ) = 0.41271E+01
  weight for this iteration     100.00

 Free energy of the ion-electron system (eV)
  ---------------------------------------------------
  alpha Z        PSCENC =      1044.11122432
  Ewald energy   TEWEN  =    -17829.52310473
  -Hartree energ DENC   =     -6126.66578712
  -exchange      EXHF   =         0.00000000
  -V(xc)+E(xc)   XCENC  =       655.88857665
  PAW double counting   =     20093.41991754   -20817.29517240
  entropy T*S    EENTRO =         0.00000000
  eigenvalues    EBANDS =     -1428.06858648
  atomic energy  EATOM  =     24304.10294433
  Solvation  Ediel_sol  =         0.00000000
  ---------------------------------------------------
  free energy    TOTEN  =      -104.02998788 eV

  energy without entropy =     -104.02998788  energy(sigma->0) =     -104.02998788


--------------------------------------------------------------------------------------------------------




--------------------------------------- Iteration      1(   6)  ---------------------------------------


    POTLOK:  cpu time      0.0440: real time      0.0458
    SETDIJ:  cpu time      0.0081: real time      0.0082
     EDDAV:  cpu time      6.9176: real time      6.9843
 BZINTS: Fermi energy:    8.348106;  156.000000 electrons
         Band energy:-0.185293E+04;  BLOECHL correction:   -0.069731
       DOS:  cpu time      0.1350: real time      0.1361
    CHARGE:  cpu time      0.1531: real time      0.1544
    MIXING:  cpu time      0.1146: real time      0.1229
    --------------------------------------------
      LOOP:  cpu time      7.3726: real time      7.4519

 eigenvalue-minimisations  : 48544
 total energy-change (2. order) : 0.2312505E+01  (-0.6559328E+01)
 number of electron     156.0000011 magnetization      24.7227366
 augmentation part       88.2668554 magnetization      19.3358486

 Broyden mixing:
  rms(total) = 0.37733E+01    rms(broyden)= 0.37733E+01
  rms(prec ) = 0.45820E+01
  weight for this iteration     100.00

 eigenvalues of (default mixing * dielectric matrix)
  average eigenvalue GAMMA=   0.3868
  0.3868

 Free energy of the ion-electron system (eV)
  ---------------------------------------------------
  alpha Z        PSCENC =      1044.11122432
  Ewald energy   TEWEN  =    -17829.52310473
  -Hartree energ DENC   =     -5706.46999534
  -exchange      EXHF   =         0.00000000
  -V(xc)+E(xc)   XCENC  =       638.86792398
  PAW double counting   =     20312.26270728   -21012.14328013
  entropy T*S    EENTRO =         0.00000000
  eigenvalues    EBANDS =     -1852.92590236
  atomic energy  EATOM  =     24304.10294433
  Solvation  Ediel_sol  =         0.00000000
  ---------------------------------------------------
  free energy    TOTEN  =      -101.71748264 eV

  energy without entropy =     -101.71748264  energy(sigma->0) =     -101.71748264


--------------------------------------------------------------------------------------------------------




--------------------------------------- Iteration      1(   7)  ---------------------------------------


    POTLOK:  cpu time      0.1011: real time      0.1325
    SETDIJ:  cpu time      0.2533: real time      0.2571
     EDDAV:  cpu time      7.0897: real time      7.1771
 BZINTS: Fermi energy:    9.476076;  156.000000 electrons
         Band energy:-0.166745E+04;  BLOECHL correction:   -0.047991
       DOS:  cpu time      0.1398: real time      0.1415
    CHARGE:  cpu time      0.1559: real time      0.1577
    MIXING:  cpu time      0.0148: real time      0.0189
    --------------------------------------------
      LOOP:  cpu time      7.7545: real time      7.8847

 eigenvalue-minimisations  : 49408
 total energy-change (2. order) : 0.6437569E+01  (-0.8069387E+01)
 number of electron     156.0000011 magnetization      24.7558676
 augmentation part       84.0278078 magnetization      17.8548109

 Broyden mixing:
  rms(total) = 0.18728E+01    rms(broyden)= 0.18727E+01
  rms(prec ) = 0.21379E+01
  weight for this iteration     100.00

 eigenvalues of (default mixing * dielectric matrix)
  average eigenvalue GAMMA=   0.6374
  0.9621  0.3127

 Free energy of the ion-electron system (eV)
  ---------------------------------------------------
  alpha Z        PSCENC =      1044.11122432
  Ewald energy   TEWEN  =    -17829.52310473
  -Hartree energ DENC   =     -5859.23361846
  -exchange      EXHF   =         0.00000000
  -V(xc)+E(xc)   XCENC  =       643.78299117
  PAW double counting   =     20885.38376293   -21616.45408858
  entropy T*S    EENTRO =         0.00000000
  eigenvalues    EBANDS =     -1667.45002418
  atomic energy  EATOM  =     24304.10294433
  Solvation  Ediel_sol  =         0.00000000
  ---------------------------------------------------
  free energy    TOTEN  =       -95.27991320 eV

  energy without entropy =      -95.27991320  energy(sigma->0) =      -95.27991320


--------------------------------------------------------------------------------------------------------




--------------------------------------- Iteration      1(   8)  ---------------------------------------


    POTLOK:  cpu time      0.0544: real time      0.0577
    SETDIJ:  cpu time      0.0058: real time      0.0058
     EDDAV:  cpu time      7.5412: real time      7.5959
 BZINTS: Fermi energy:    9.289108;  156.000000 electrons
         Band energy:-0.169698E+04;  BLOECHL correction:   -0.046252
       DOS:  cpu time      0.1352: real time      0.1361
    CHARGE:  cpu time      0.1506: real time      0.1515
    MIXING:  cpu time      0.0020: real time      0.0026
    --------------------------------------------
      LOOP:  cpu time      7.8892: real time      7.9497

 eigenvalue-minimisations  : 52416
 total energy-change (2. order) : 0.8607766E+00  (-0.6069945E+00)
 number of electron     156.0000011 magnetization      24.8278630
 augmentation part       84.7216080 magnetization      18.5229456

 Broyden mixing:
  rms(total) = 0.13905E+01    rms(broyden)= 0.13904E+01
  rms(prec ) = 0.20968E+01
  weight for this iteration     100.00

 eigenvalues of (default mixing * dielectric matrix)
  average eigenvalue GAMMA=   0.6199
  1.0739  0.3929  0.3929

 Free energy of the ion-electron system (eV)
  ---------------------------------------------------
  alpha Z        PSCENC =      1044.11122432
  Ewald energy   TEWEN  =    -17829.52310473
  -Hartree energ DENC   =     -5818.54611444
  -exchange      EXHF   =         0.00000000
  -V(xc)+E(xc)   XCENC  =       644.18216879
  PAW double counting   =     21298.16117444   -22039.92835781
  entropy T*S    EENTRO =         0.00000000
  eigenvalues    EBANDS =     -1696.97907152
  atomic energy  EATOM  =     24304.10294433
  Solvation  Ediel_sol  =         0.00000000
  ---------------------------------------------------
  free energy    TOTEN  =       -94.41913662 eV

  energy without entropy =      -94.41913662  energy(sigma->0) =      -94.41913662


--------------------------------------------------------------------------------------------------------




--------------------------------------- Iteration      1(   9)  ---------------------------------------


    POTLOK:  cpu time      0.0408: real time      0.0455
    SETDIJ:  cpu time      0.0084: real time      0.0084
     EDDAV:  cpu time      7.6041: real time      7.6559
 BZINTS: Fermi energy:    9.260676;  156.000000 electrons
         Band energy:-0.170309E+04;  BLOECHL correction:   -0.043534
       DOS:  cpu time      0.1351: real time      0.1360
    CHARGE:  cpu time      0.1514: real time      0.1522
    MIXING:  cpu time      0.0018: real time      0.0018
    --------------------------------------------
      LOOP:  cpu time      7.9416: real time      7.9998

 eigenvalue-minimisations  : 52384
 total energy-change (2. order) :-0.2436925E+00  (-0.1189266E+01)
 number of electron     156.0000011 magnetization      25.1020346
 augmentation part       84.8531993 magnetization      18.8706180

 Broyden mixing:
  rms(total) = 0.16117E+01    rms(broyden)= 0.16116E+01
  rms(prec ) = 0.25564E+01
  weight for this iteration     100.00

 eigenvalues of (default mixing * dielectric matrix)
  average eigenvalue GAMMA=   0.7225
  1.6458  0.7827  0.3403  0.1211

 Free energy of the ion-electron system (eV)
  ---------------------------------------------------
  alpha Z        PSCENC =      1044.11122432
  Ewald energy   TEWEN  =    -17829.52310473
  -Hartree energ DENC   =     -5810.26057185
  -exchange      EXHF   =         0.00000000
  -V(xc)+E(xc)   XCENC  =       644.13304385
  PAW double counting   =     21388.50177002   -22132.63806499
  entropy T*S    EENTRO =         0.00000000
  eigenvalues    EBANDS =     -1703.09007011
  atomic energy  EATOM  =     24304.10294433
  Solvation  Ediel_sol  =         0.00000000
  ---------------------------------------------------
  free energy    TOTEN  =       -94.66282917 eV

  energy without entropy =      -94.66282917  energy(sigma->0) =      -94.66282917


--------------------------------------------------------------------------------------------------------




--------------------------------------- Iteration      1(  10)  ---------------------------------------


    POTLOK:  cpu time      0.0399: real time      0.0458
    SETDIJ:  cpu time      0.0084: real time      0.0085
     EDDAV:  cpu time      7.3848: real time      7.4406
 BZINTS: Fermi energy:    9.118391;  156.000000 electrons
         Band energy:-0.171675E+04;  BLOECHL correction:   -0.060631
       DOS:  cpu time      0.1354: real time      0.1362
    CHARGE:  cpu time      0.1500: real time      0.1509
    MIXING:  cpu time      0.0019: real time      0.0019
    --------------------------------------------
      LOOP:  cpu time      7.7205: real time      7.7839

 eigenvalue-minimisations  : 51456
 total energy-change (2. order) : 0.1084377E+01  (-0.6225317E+00)
 number of electron     156.0000011 magnetization      25.1924410
 augmentation part       85.1433699 magnetization      19.2410315

 Broyden mixing:
  rms(total) = 0.72879E+00    rms(broyden)= 0.72874E+00
  rms(prec ) = 0.89186E+00
  weight for this iteration     100.00

 eigenvalues of (default mixing * dielectric matrix)
  average eigenvalue GAMMA=   0.6587
  1.7238  0.7866  0.3320  0.3320  0.1193

 Free energy of the ion-electron system (eV)
  ---------------------------------------------------
  alpha Z        PSCENC =      1044.11122432
  Ewald energy   TEWEN  =    -17829.52310473
  -Hartree energ DENC   =     -5786.77825648
  -exchange      EXHF   =         0.00000000
  -V(xc)+E(xc)   XCENC  =       643.91357934
  PAW double counting   =     21701.84144208   -22454.49481793
  entropy T*S    EENTRO =         0.00000000
  eigenvalues    EBANDS =     -1716.75146284
  atomic energy  EATOM  =     24304.10294433
  Solvation  Ediel_sol  =         0.00000000
  ---------------------------------------------------
  free energy    TOTEN  =       -93.57845191 eV

  energy without entropy =      -93.57845191  energy(sigma->0) =      -93.57845191


--------------------------------------------------------------------------------------------------------




--------------------------------------- Iteration      1(  11)  ---------------------------------------


    POTLOK:  cpu time      0.0413: real time      0.0459
    SETDIJ:  cpu time      0.0078: real time      0.0079
     EDDAV:  cpu time      7.1287: real time      7.1801
 BZINTS: Fermi energy:    9.128100;  156.000000 electrons
         Band energy:-0.171616E+04;  BLOECHL correction:   -0.060267
       DOS:  cpu time      0.1352: real time      0.1368
    CHARGE:  cpu time      0.1517: real time      0.1530
    MIXING:  cpu time      0.0019: real time      0.0020
    --------------------------------------------
      LOOP:  cpu time      7.4668: real time      7.5255

 eigenvalue-minimisations  : 50048
 total energy-change (2. order) :-0.1178917E-01  (-0.1798629E+00)
 number of electron     156.0000011 magnetization      25.3391364
 augmentation part       85.1120457 magnetization      19.3732075

 Broyden mixing:
  rms(total) = 0.76602E+00    rms(broyden)= 0.76600E+00
  rms(prec ) = 0.93660E+00
  weight for this iteration     100.00

 eigenvalues of (default mixing * dielectric matrix)
  average eigenvalue GAMMA=   0.6577
  1.8316  0.7411  0.7411  0.3521  0.1186  0.1621

 Free energy of the ion-electron system (eV)
  ---------------------------------------------------
  alpha Z        PSCENC =      1044.11122432
  Ewald energy   TEWEN  =    -17829.52310473
  -Hartree energ DENC   =     -5785.11277908
  -exchange      EXHF   =         0.00000000
  -V(xc)+E(xc)   XCENC  =       643.91702084
  PAW double counting   =     21774.01007572   -22528.93078366
  entropy T*S    EENTRO =         0.00000000
  eigenvalues    EBANDS =     -1716.16483882
  atomic energy  EATOM  =     24304.10294433
  Solvation  Ediel_sol  =         0.00000000
  ---------------------------------------------------
  free energy    TOTEN  =       -93.59024108 eV

  energy without entropy =      -93.59024108  energy(sigma->0) =      -93.59024108


--------------------------------------------------------------------------------------------------------




--------------------------------------- Iteration      1(  12)  ---------------------------------------


    POTLOK:  cpu time      0.0397: real time      0.0454
    SETDIJ:  cpu time      0.0087: real time      0.0088
     EDDAV:  cpu time      7.0995: real time      7.1503
 BZINTS: Fermi energy:    9.143543;  156.000000 electrons
         Band energy:-0.171388E+04;  BLOECHL correction:   -0.066429
       DOS:  cpu time      0.1353: real time      0.1362
    CHARGE:  cpu time      0.1527: real time      0.1536
    MIXING:  cpu time      0.0020: real time      0.0020
    --------------------------------------------
      LOOP:  cpu time      7.4379: real time      7.4964

 eigenvalue-minimisations  : 49952
 total energy-change (2. order) : 0.1984001E+00  (-0.6635916E-01)
 number of electron     156.0000011 magnetization      25.4375198
 augmentation part       85.0478782 magnetization      19.4462807

 Broyden mixing:
  rms(total) = 0.25359E+00    rms(broyden)= 0.25357E+00
  rms(prec ) = 0.29469E+00
  weight for this iteration     100.00

 eigenvalues of (default mixing * dielectric matrix)
  average eigenvalue GAMMA=   0.6902
  2.0204  0.8399  0.8399  0.4967  0.3538  0.1185  0.1622

 Free energy of the ion-electron system (eV)
  ---------------------------------------------------
  alpha Z        PSCENC =      1044.11122432
  Ewald energy   TEWEN  =    -17829.52310473
  -Hartree energ DENC   =     -5784.17424735
  -exchange      EXHF   =         0.00000000
  -V(xc)+E(xc)   XCENC  =       643.92040086
  PAW double counting   =     21870.31433928   -22628.26644275
  entropy T*S    EENTRO =         0.00000000
  eigenvalues    EBANDS =     -1713.87695497
  atomic energy  EATOM  =     24304.10294433
  Solvation  Ediel_sol  =         0.00000000
  ---------------------------------------------------
  free energy    TOTEN  =       -93.39184102 eV

  energy without entropy =      -93.39184102  energy(sigma->0) =      -93.39184102


--------------------------------------------------------------------------------------------------------




--------------------------------------- Iteration      1(  13)  ---------------------------------------


    POTLOK:  cpu time      0.0447: real time      0.0457
    SETDIJ:  cpu time      0.0084: real time      0.0085
     EDDAV:  cpu time      7.1970: real time      7.2478
 BZINTS: Fermi energy:    9.142511;  156.000000 electrons
         Band energy:-0.171440E+04;  BLOECHL correction:   -0.065186
       DOS:  cpu time      0.1348: real time      0.1363
    CHARGE:  cpu time      0.2338: real time      0.2351
    MIXING:  cpu time      0.0020: real time      0.0020
    --------------------------------------------
      LOOP:  cpu time      7.6207: real time      7.6754

 eigenvalue-minimisations  : 50432
 total energy-change (2. order) :-0.5169274E-01  (-0.3936690E-01)
 number of electron     156.0000011 magnetization      25.5884909
 augmentation part       85.0549357 magnetization      19.5777287

 Broyden mixing:
  rms(total) = 0.40634E+00    rms(broyden)= 0.40632E+00
  rms(prec ) = 0.50387E+00
  weight for this iteration     100.00

 eigenvalues of (default mixing * dielectric matrix)
  average eigenvalue GAMMA=   0.7214
  2.3425  0.9935  0.9935  0.6453  0.3516  0.1182  0.1633  0.1633

 Free energy of the ion-electron system (eV)
  ---------------------------------------------------
  alpha Z        PSCENC =      1044.11122432
  Ewald energy   TEWEN  =    -17829.52310473
  -Hartree energ DENC   =     -5782.57518601
  -exchange      EXHF   =         0.00000000
  -V(xc)+E(xc)   XCENC  =       643.86939478
  PAW double counting   =     21913.11136241   -22672.13749968
  entropy T*S    EENTRO =         0.00000000
  eigenvalues    EBANDS =     -1714.40266918
  atomic energy  EATOM  =     24304.10294433
  Solvation  Ediel_sol  =         0.00000000
  ---------------------------------------------------
  free energy    TOTEN  =       -93.44353376 eV

  energy without entropy =      -93.44353376  energy(sigma->0) =      -93.44353376


--------------------------------------------------------------------------------------------------------




--------------------------------------- Iteration      1(  14)  ---------------------------------------


    POTLOK:  cpu time      0.0445: real time      0.0453
    SETDIJ:  cpu time      0.0081: real time      0.0082
     EDDAV:  cpu time      7.2391: real time      7.2940
[...]
    113      23.4074      0.00000
    114      23.9180      0.00000
    115      23.9182      0.00000
    116      24.2217      0.00000
    117      24.2226      0.00000
    118      25.0493      0.00000
    119      25.0502      0.00000
    120      26.4350      0.00000
    121      26.4398      0.00000
    122      26.4928      0.00000
    123      26.8316      0.00000
    124      27.6416      0.00000
    125      27.6426      0.00000
    126      28.0764      0.00000
    127      28.0769      0.00000
    128      28.6333      0.00000


--------------------------------------------------------------------------------------------------------


 soft charge-density along one line, spin component           1
         0         1         2         3         4         5         6         7         8         9
 total charge-density along one line
 
 soft charge-density along one line, spin component           2
         0         1         2         3         4         5         6         7         8         9
 total charge-density along one line
 
 pseudopotential strength for first ion, spin component:           1
-45.619   0.000   0.000   7.880  -0.000  -0.000  -0.000   0.000
  0.000 -45.613   0.000  -0.000   7.877  -0.000   0.000   0.000
  0.000   0.000 -45.508  -0.000  -0.000   7.834   0.000   0.000
  7.880  -0.000  -0.000   5.572  -0.000  -0.000   0.000  -0.000
 -0.000   7.877  -0.000  -0.000   5.573  -0.000  -0.000  -0.000
 -0.000  -0.000   7.834  -0.000  -0.000   5.581  -0.000  -0.000
 -0.000   0.000   0.000   0.000  -0.000  -0.000  -2.574   0.000
  0.000   0.000   0.000  -0.000  -0.000  -0.000   0.000  -2.652
 -0.000   0.000   0.000   0.000  -0.000  -0.000  -0.000  -0.000
  0.000  -0.000   0.000  -0.000   0.000  -0.000   0.000   0.000
 -0.000  -0.000  -0.000   0.000   0.000   0.000  -0.000  -0.000
 -0.000   0.000   0.000  -0.000  -0.000  -0.000  -3.080   0.000
  0.000   0.000   0.000  -0.000  -0.000  -0.000   0.000  -3.156
 -0.000   0.000   0.000   0.000  -0.000  -0.000  -0.000  -0.000
  0.000  -0.000   0.000  -0.000   0.000  -0.000   0.000   0.000
 -0.000  -0.000  -0.000   0.000   0.000   0.000  -0.000  -0.000
 -0.000  -0.000   0.000  -0.000   0.000   0.000  -0.000  -0.000
 -0.000  -0.000   0.000  -0.000   0.000   0.000  -0.000  -0.000
 pseudopotential strength for first ion, spin component:           2
-43.208   0.000   0.000   6.866  -0.000  -0.000  -0.000   0.000
  0.000 -43.208   0.000  -0.000   6.866  -0.000  -0.000   0.000
  0.000   0.000 -43.169  -0.000  -0.000   6.849   0.000  -0.000
  6.866  -0.000  -0.000   5.859  -0.000  -0.000   0.000  -0.000
 -0.000   6.866  -0.000  -0.000   5.859  -0.000   0.000  -0.000
 -0.000  -0.000   6.849  -0.000  -0.000   5.863  -0.000   0.000
 -0.000  -0.000   0.000   0.000   0.000  -0.000  -0.665   0.000
  0.000   0.000  -0.000  -0.000  -0.000   0.000   0.000  -0.684
 -0.000   0.000   0.000   0.000  -0.000  -0.000  -0.000  -0.000
 -0.000  -0.000   0.000   0.000   0.000  -0.000   0.000   0.000
 -0.000   0.000  -0.000   0.000  -0.000   0.000   0.000  -0.000
 -0.000  -0.000   0.000  -0.000   0.000  -0.000  -1.202   0.000
  0.000   0.000  -0.000  -0.000  -0.000   0.000   0.000  -1.221
 -0.000   0.000   0.000   0.000  -0.000  -0.000  -0.000  -0.000
 -0.000  -0.000   0.000   0.000   0.000  -0.000   0.000   0.000
 -0.000   0.000  -0.000   0.000  -0.000   0.000   0.000  -0.000
 -0.000  -0.000   0.000  -0.000   0.000   0.000  -0.000  -0.000
 -0.000  -0.000   0.000  -0.000   0.000   0.000  -0.000  -0.000
 total augmentation occupancy for first ion, spin component:           1
  1.992   0.000   0.000  -0.027   0.000   0.000  -0.000  -0.000  -0.000  -0.000   0.000   0.000   0.000   0.000  -0.000   0.000
  0.000   1.992   0.000  -0.000  -0.027   0.000   0.000   0.000  -0.000   0.000  -0.000   0.000   0.000   0.000   0.000   0.000
  0.000   0.000   1.992  -0.000  -0.000  -0.027   0.000   0.000   0.000  -0.000  -0.000   0.000  -0.000   0.000   0.000   0.000
 -0.027  -0.000  -0.000   0.169  -0.000   0.000   0.000   0.000   0.000   0.000  -0.000  -0.000  -0.000   0.000   0.000  -0.000
  0.000  -0.027  -0.000  -0.000   0.168   0.000  -0.000   0.000  -0.000  -0.000  -0.000  -0.000  -0.000  -0.000  -0.000   0.000
  0.000   0.000  -0.027   0.000   0.000   0.150   0.000  -0.000   0.000  -0.000   0.000  -0.000  -0.000   0.000   0.000   0.000
 -0.000   0.000   0.000   0.000  -0.000   0.000   2.973   0.000  -0.000   0.000   0.000  -1.593   0.000   0.000   0.000   0.000
 -0.000   0.000   0.000   0.000   0.000  -0.000   0.000   3.249   0.000   0.000   0.000  -0.000  -2.084   0.000  -0.000   0.000
 -0.000  -0.000   0.000   0.000  -0.000   0.000  -0.000   0.000   3.368  -0.000   0.170  -0.000   0.000  -1.894  -0.000  -0.095
 -0.000   0.000  -0.000   0.000  -0.000  -0.000   0.000   0.000  -0.000   2.948  -0.000  -0.000   0.000   0.000  -1.574   0.000
  0.000  -0.000  -0.000  -0.000  -0.000   0.000   0.000   0.000   0.170  -0.000   3.162   0.000   0.000  -0.095  -0.000  -1.778
  0.000   0.000   0.000  -0.000  -0.000  -0.000  -1.593  -0.000  -0.000  -0.000   0.000   1.619  -0.000   0.000   0.000  -0.000
  0.000   0.000  -0.000  -0.000  -0.000  -0.000   0.000  -2.084   0.000   0.000   0.000  -0.000   2.232   0.000  -0.000   0.000
  0.000   0.000   0.000   0.000  -0.000   0.000   0.000   0.000  -1.894   0.000  -0.095   0.000   0.000   1.682   0.000   0.020
 -0.000   0.000   0.000   0.000  -0.000   0.000   0.000  -0.000  -0.000  -1.574  -0.000   0.000  -0.000   0.000   1.607  -0.000
  0.000   0.000   0.000  -0.000   0.000   0.000   0.000   0.000  -0.095   0.000  -1.778  -0.000   0.000   0.020  -0.000   1.654
  0.000   0.000   0.000   0.000  -0.000   0.000   0.000   0.000  -0.099   0.000   0.170   0.000  -0.000   0.070  -0.000  -0.120
  0.000  -0.000   0.000  -0.000   0.000  -0.000  -0.000   0.000   0.006  -0.000  -0.011   0.000   0.000  -0.004   0.000   0.007
 total augmentation occupancy for first ion, spin component:           2
 -0.002   0.000   0.000  -0.009  -0.000  -0.000   0.000   0.000   0.000   0.000   0.000   0.000  -0.000   0.000   0.000   0.000
  0.000  -0.002   0.000   0.000  -0.009  -0.000   0.000   0.000   0.000   0.000   0.000   0.000  -0.000  -0.000   0.000  -0.000
  0.000   0.000  -0.002  -0.000   0.000  -0.010   0.000   0.000   0.000   0.000   0.000   0.000   0.000   0.000  -0.000   0.000
 -0.009   0.000  -0.000  -0.005   0.000   0.000  -0.000  -0.000   0.000   0.000  -0.000   0.000   0.000  -0.000   0.000   0.000
 -0.000  -0.009   0.000   0.000  -0.006   0.000  -0.000  -0.000  -0.000   0.000  -0.000   0.000   0.000   0.000  -0.000   0.000
 -0.000  -0.000  -0.010   0.000   0.000  -0.012  -0.000  -0.000   0.000  -0.000   0.000   0.000   0.000  -0.000   0.000  -0.000
  0.000   0.000   0.000  -0.000  -0.000  -0.000   2.473   0.000   0.000  -0.000   0.000  -1.085  -0.000  -0.000   0.000  -0.000
  0.000   0.000   0.000  -0.000  -0.000  -0.000   0.000   2.495   0.000   0.000   0.000   0.000  -1.016  -0.000  -0.000  -0.000
  0.000   0.000   0.000   0.000  -0.000   0.000   0.000   0.000   2.803  -0.000   0.099   0.000   0.000  -1.194  -0.000  -0.094
  0.000   0.000   0.000   0.000   0.000  -0.000  -0.000   0.000  -0.000   2.444   0.000   0.000   0.000  -0.000  -1.067  -0.000
  0.000   0.000   0.000  -0.000  -0.000   0.000   0.000   0.000   0.099   0.000   2.682  -0.000  -0.000  -0.094  -0.000  -1.080
  0.000   0.000   0.000   0.000   0.000   0.000  -1.085   0.000   0.000   0.000  -0.000   0.278   0.000  -0.000   0.000   0.000
 -0.000  -0.000   0.000   0.000   0.000   0.000  -0.000  -1.016   0.000   0.000  -0.000   0.000   0.167  -0.000  -0.000   0.000
  0.000  -0.000   0.000  -0.000   0.000  -0.000  -0.000  -0.000  -1.194  -0.000  -0.094  -0.000  -0.000   0.376  -0.000   0.107
  0.000   0.000  -0.000   0.000  -0.000   0.000   0.000  -0.000  -0.000  -1.067  -0.000   0.000  -0.000  -0.000   0.265   0.000
  0.000  -0.000   0.000   0.000   0.000  -0.000  -0.000  -0.000  -0.094  -0.000  -1.080   0.000   0.000   0.107   0.000   0.249
  0.000  -0.000   0.000   0.000   0.000   0.000   0.000   0.000  -0.034   0.000   0.059  -0.000   0.000   0.034   0.000  -0.059
 -0.000   0.000   0.000  -0.000  -0.000   0.000  -0.000   0.000   0.002   0.000  -0.005   0.000   0.000  -0.000  -0.000   0.001


------------------------ aborting loop because EDIFF is reached ----------------------------------------





 total charge

# of ion       s       p       d       tot
------------------------------------------
    1        0.335   6.300   5.998  12.633
    2        0.334   6.300   5.998  12.633
    3        0.335   6.300   5.998  12.633
    4        0.334   6.301   5.998  12.633
    5        0.335   6.301   5.998  12.633
    6        0.335   6.301   5.998  12.633
    7        0.335   6.300   5.998  12.633
    8        0.334   6.300   5.998  12.633
    9        0.335   6.300   5.998  12.633
   10        0.739   0.648   8.022   9.409
   11        0.739   0.648   8.021   9.408
   12        0.739   0.648   8.021   9.408
--------------------------------------------------
tot          5.227  58.647  78.047 141.921



 magnetization (x)

# of ion       s       p       d       tot
------------------------------------------
    1       -0.001  -0.017   2.808   2.789
    2       -0.002  -0.017   2.810   2.791
    3       -0.001  -0.017   2.808   2.789
    4       -0.002  -0.017   2.810   2.791
    5       -0.002  -0.017   2.810   2.791
    6       -0.002  -0.017   2.810   2.791
    7       -0.001  -0.017   2.808   2.789
    8       -0.002  -0.017   2.810   2.791
    9       -0.001  -0.017   2.808   2.789
   10       -0.043  -0.100   0.439   0.296
   11       -0.042  -0.100   0.439   0.297
   12       -0.042  -0.100   0.439   0.297
--------------------------------------------------
tot         -0.141  -0.456  26.598  26.001
 
    CHARGE:  cpu time      0.1490: real time      0.1499
    FORLOC:  cpu time      0.0019: real time      0.0019
    FORNL :  cpu time      0.7605: real time      0.7654
    STRESS:  cpu time      4.6295: real time      4.6671
    FORCOR:  cpu time      0.0222: real time      0.0223
    FORHAR:  cpu time      0.0027: real time      0.0027
    MIXING:  cpu time      0.0026: real time      0.0027
    OFIELD:  cpu time      0.0015: real time      0.0015

  FORCE on cell =-STRESS in cart. coord.  units (eV):
  Direction    XX          YY          ZZ          XY          YZ          ZX
  --------------------------------------------------------------------------------------
  Alpha Z  1044.11122  1044.11122  1044.11122
  Ewald   -5942.81180 -5942.81180 -5943.91796     0.00000     0.00000    -0.00000
  Hartree  1927.08289  1927.08289  1926.51210    -0.00000    -0.00000    -0.00000
  E(xc)    -943.24852  -943.24852  -943.24856     0.00000     0.00000     0.00000
  Local    1004.45398  1004.45398  1006.09115     0.00000    -0.00000    -0.00000
  n-local  -222.69372  -237.14614  -230.13963    14.21110    -0.15810     0.02746
  augment  1440.07506  1440.07506  1440.15394    -0.00000     0.00000     0.00000
  Kinetic  1695.67465  1690.39058  1692.89735     1.48969     0.34862     1.08485
  Fock        0.00000     0.00000     0.00000     0.00000     0.00000     0.00000
  -------------------------------------------------------------------------------------
  Total      -7.22448    -7.22448    -7.54037     0.00000    -0.00000    -0.00000
  in kB     -71.01166   -71.01166   -74.11665     0.00000    -0.00000    -0.00000
  external pressure =      -72.05 kB  Pullay stress =        0.00 kB


 VOLUME and BASIS-vectors are now :
 -----------------------------------------------------------------------------
  energy-cutoff  :      520.00
  volume of cell :      163.00
      direct lattice vectors                 reciprocal lattice vectors
     3.786238269  0.000000000  0.000000000     0.264114387  0.000000000  0.000000000
     0.000000000  3.786238269  0.000000000     0.000000000  0.264114387  0.000000000
     0.000000000  0.000000000 11.370294749     0.000000000  0.000000000  0.087948468

  length of vectors
     3.786238269  3.786238269 11.370294749     0.264114387  0.264114387  0.087948468


 FORCES acting on ions
    electron-ion (+dipol)            ewald-force                    non-local-force                 convergence-correction
 -----------------------------------------------------------------------------------------------
   -.650E-13 0.110E-11 -.121E+01   0.123E-13 0.172E-13 0.121E+01   -.979E-20 -.282E-20 0.517E-02   0.227E-13 0.902E-14 -.653E-03
   -.650E-13 0.111E-11 0.261E-12   0.403E-13 -.361E-14 0.114E-12   0.598E-25 -.568E-25 0.490E-24   0.170E-13 0.180E-13 0.323E-12
   -.650E-13 -.379E-12 0.121E+01   0.374E-13 0.910E-14 -.121E+01   0.101E-19 -.324E-20 -.517E-02   0.245E-13 0.119E-13 0.653E-03
   0.110E-11 0.800E-11 0.527E-11   0.438E-13 -.191E-15 -.227E-12   -.511E-24 -.558E-24 -.309E-26   -.156E-12 -.207E-13 0.224E-12
   0.111E-11 0.708E-11 -.880E+00   0.639E-13 0.250E-13 0.868E+00   0.425E-20 0.156E-20 0.750E-02   -.160E-12 -.271E-13 -.109E-02
   0.111E-11 0.664E-11 0.880E+00   -.453E-13 -.580E-13 -.868E+00   -.117E-20 0.152E-20 -.750E-02   -.157E-12 -.348E-13 0.109E-02
   0.110E-11 -.508E-13 -.121E+01   -.107E-13 -.185E-13 0.121E+01   0.113E-19 -.227E-20 0.517E-02   -.147E-12 -.887E-14 -.653E-03
   0.109E-11 -.457E-13 0.318E-11   -.317E-13 -.153E-13 0.398E-12   -.699E-25 0.161E-25 0.357E-24   -.150E-12 -.136E-13 0.330E-12
   0.109E-11 -.422E-13 0.121E+01   -.637E-13 0.656E-14 -.121E+01   -.158E-19 -.414E-20 -.517E-02   -.138E-12 -.538E-14 0.653E-03
   -.414E-13 -.417E-13 0.870E-13   -.384E-13 0.615E-15 0.000E+00   0.198E-24 -.124E-24 0.141E-24   0.508E-13 0.512E-14 0.240E-13
   -.418E-13 -.417E-13 -.640E+00   -.699E-13 -.227E-13 0.641E+00   0.672E-20 0.498E-20 -.733E-02   0.512E-13 0.466E-14 -.102E-02
   -.417E-13 -.433E-13 0.640E+00   0.924E-13 0.295E-13 -.641E+00   -.131E-19 -.505E-20 0.733E-02   0.509E-13 0.535E-14 0.102E-02
 -----------------------------------------------------------------------------------------------
   0.628E-11 0.233E-10 0.843E-11   0.306E-13 -.303E-13 0.293E-12   -.757E-20 -.946E-20 -.867E-18   -.691E-12 -.565E-13 0.743E-12
 
 
 POSITION                                       TOTAL-FORCE (eV/Angst)
 -----------------------------------------------------------------------------------
      0.00000      1.89312      1.89450        -0.000000      0.000000      0.006369
      0.00000      1.89312      5.68515        -0.000000     -0.000000      0.000000
      0.00000      1.89312      9.47579        -0.000000      0.000000     -0.006369
      1.89312      1.89312      0.00000         0.000000      0.000000      0.000000
      1.89312      1.89312      3.78975        -0.000000     -0.000000     -0.005943
      1.89312      1.89312      7.58055         0.000000     -0.000000      0.005943
      1.89312      0.00000      1.89450         0.000000      0.000000      0.006369
      1.89312      0.00000      5.68515         0.000000      0.000000      0.000000
      1.89312      0.00000      9.47579        -0.000000      0.000000     -0.006369
      0.00000      0.00000      0.00000        -0.000000      0.000000     -0.000000
      0.00000      0.00000      3.78968        -0.000000      0.000000     -0.006855
      0.00000      0.00000      7.58062        -0.000000      0.000000      0.006855
 -----------------------------------------------------------------------------------
    total drift:                                0.000000      0.000000      0.000000


--------------------------------------------------------------------------------------------------------



  FREE ENERGIE OF THE ION-ELECTRON SYSTEM (eV)
  ---------------------------------------------------
  free  energy   TOTEN  =       -93.38573919 eV

  energy  without entropy=      -93.38573919  energy(sigma->0) =      -93.38573919
 


--------------------------------------------------------------------------------------------------------


    POTLOK:  cpu time      0.0403: real time      0.0406


--------------------------------------------------------------------------------------------------------


     LOOP+:  cpu time    178.3523: real time    180.3950
 -----------------------------------------------------------------------------
|                                                                             |
|           W    W    AA    RRRRR   N    N  II  N    N   GGGG   !!!           |
|           W    W   A  A   R    R  NN   N  II  NN   N  G    G  !!!           |
|           W    W  A    A  R    R  N N  N  II  N N  N  G       !!!           |
|           W WW W  AAAAAA  RRRRR   N  N N  II  N  N N  G  GGG   !            |
|           WW  WW  A    A  R   R   N   NN  II  N   NN  G    G                |
|           W    W  A    A  R    R  N    N  II  N    N   GGGG   !!!           |
|                                                                             |
|     Tetrahedron method does not include variations of the Fermi             |
|     occupations, so forces and stress will be inaccurate. We suggest        |
|     using a different smearing scheme ISMEAR = 1 or 2 for metals in         |
|     relaxations.                                                            |
|                                                                             |
 -----------------------------------------------------------------------------

    4ORBIT:  cpu time      0.0000: real time      0.0000



 total charge

# of ion       s       p       d       tot
------------------------------------------
    1        0.335   6.300   5.998  12.633
    2        0.334   6.300   5.998  12.633
    3        0.335   6.300   5.998  12.633
    4        0.334   6.301   5.998  12.633
    5        0.335   6.301   5.998  12.633
    6        0.335   6.301   5.998  12.633
    7        0.335   6.300   5.998  12.633
    8        0.334   6.300   5.998  12.633
    9        0.335   6.300   5.998  12.633
   10        0.739   0.648   8.022   9.409
   11        0.739   0.648   8.021   9.408
   12        0.739   0.648   8.021   9.408
--------------------------------------------------
tot          5.227  58.647  78.047 141.921



 magnetization (x)

# of ion       s       p       d       tot
------------------------------------------
    1       -0.001  -0.017   2.808   2.789
    2       -0.002  -0.017   2.810   2.791
    3       -0.001  -0.017   2.808   2.789
    4       -0.002  -0.017   2.810   2.791
    5       -0.002  -0.017   2.810   2.791
    6       -0.002  -0.017   2.810   2.791
    7       -0.001  -0.017   2.808   2.789
    8       -0.002  -0.017   2.810   2.791
    9       -0.001  -0.017   2.808   2.789
   10       -0.043  -0.100   0.439   0.296
   11       -0.042  -0.100   0.439   0.297
   12       -0.042  -0.100   0.439   0.297
--------------------------------------------------
tot         -0.141  -0.456  26.598  26.001
 
 BZINTS: Fermi energy:    9.143927;  156.000000 electrons
         Band energy:-0.171490E+04;  BLOECHL correction:   -0.069061

 total amount of memory used by VASP MPI-rank0   196193. kBytes
=======================================================================

   base      :      30000. kBytes
   nonl-proj :     107679. kBytes
   fftplans  :        955. kBytes
   grid      :       7297. kBytes
   one-center:        373. kBytes
   wavefun   :      49889. kBytes
 
  
  
 General timing and accounting informations for this job:
 ========================================================
  
                  Total CPU time used (sec):      198.035
                            User time (sec):      189.978
                          System time (sec):        8.057
                         Elapsed time (sec):      206.200
  
                   Maximum memory used (kb):      911276.
                   Average memory used (kb):          N/A
  
                          Minor page faults:       197740
                          Major page faults:          698
                 Voluntary context switches:         7566
