 vasp.6.4.3 19Mar24 (build Mar 26 2024 14:05:37) complex                        
  
 executed on             LinuxIFC date 2024.12.16  07:25:15
 running  128 mpi-ranks, on    1 nodes
 distrk:  each k-point on   32 cores,    4 groups
 distr:  one band on NCORE=   1 cores,   32 groups


--------------------------------------------------------------------------------------------------------


 INCAR:
   ALGO = All
   EDIFF = 1e-06
   EDIFFG = -0.01
   ENCUT = 520
   GGA = Pe
   IBRION = 2
   ISIF = 4
   ISMEAR = 1
   ISPIN = 2
   KPAR = 4
   LCHARG = True
   LORBIT = 11
   LREAL = False
   LWAVE = False
   MAGMOM = 1*2.812 1*2.813 2*2.812 2*2.814 1*2.812 1*2.813 1*2.812 3*0.307
   NELM = 200
   NSW = 100
   PREC = Accurate
   SIGMA = 0.2

 POTCAR:    PAW_PBE Fe_pv 02Aug2007               
 POTCAR:    PAW_PBE Pt 04Feb2005                  
 -----------------------------------------------------------------------------
|                                                                             |
|           W    W    AA    RRRRR   N    N  II  N    N   GGGG   !!!           |
|           W    W   A  A   R    R  NN   N  II  NN   N  G    G  !!!           |
|           W    W  A    A  R    R  N N  N  II  N N  N  G       !!!           |
|           W WW W  AAAAAA  RRRRR   N  N N  II  N  N N  G  GGG   !            |
|           WW  WW  A    A  R   R   N   NN  II  N   NN  G    G                |
|           W    W  A    A  R    R  N    N  II  N    N   GGGG   !!!           |
|                                                                             |
|     For optimal performance we recommend to set                             |
|       NCORE = 2 up to number-of-cores-per-socket                            |
|     NCORE specifies how many cores store one orbital (NPAR=cpu/NCORE).      |
|     This setting can greatly improve the performance of VASP for DFT.       |
|     The default, NCORE=1 might be grossly inefficient on modern             |
|     multi-core architectures or massively parallel machines. Do your        |
|     own testing! More info at https://www.vasp.at/wiki/index.php/NCORE      |
|     Unfortunately you need to use the default for GW and RPA                |
|     calculations (for HF NCORE is supported but not extensively tested      |
|     yet).                                                                   |
|                                                                             |
 -----------------------------------------------------------------------------

 POTCAR:    PAW_PBE Fe_pv 02Aug2007               
   SHA256 =  5d22e414b1f82158bf2c7ecb8b97b28fd0923e48cadc1c3bf74d524558f5dd32 Fe_pv/POTCAR          
   COPYR  = (c) Copyright 02Aug2007 Georg Kresse                                                    
   COPYR  = This file is part of the software VASP. Any use, copying, and all other rights are regul
   COPYR  = If you do not have a valid VASP license, you may not use, copy or distribute this file. 
   VRHFIN =Fe:  3pd7s1                                                                              
   LEXCH  = PE                                                                                      
   EATOM  =  2457.4239 eV,  180.6156 Ry                                                             
                                                                                                    
   TITEL  = PAW_PBE Fe_pv 02Aug2007                                                                 
   LULTRA =        F    use ultrasoft PP ?                                                          
   IUNSCR =        1    unscreen: 0-lin 1-nonlin 2-no                                               
   RPACOR =    1.750    partial core radius                                                         
   POMASS =   55.847; ZVAL   =   14.000    mass and valenz                                          
   RCORE  =    2.200    outmost cutoff radius                                                       
   RWIGS  =    2.200; RWIGS  =    1.164    wigner-seitz radius (au A)                               
   ENMAX  =  293.238; ENMIN  =  219.928 eV                                                          
   ICORE  =        3    local potential                                                             
   LCOR   =        T    correct aug charges                                                         
   LPAW   =        T    paw PP                                                                      
   EAUG   =  578.342                                                                                
   DEXC   =    0.000                                                                                
   RMAX   =    2.249    core radius for proj-oper                                                   
   RAUG   =    1.300    factor for augmentation sphere                                              
   RDEP   =    2.296    radius for radial grids                                                     
   RDEPT  =    1.766    core radius for aug-charge                                                  
                                                                                                    
   Atomic configuration                                                                             
    8 entries                                                                                       
     n  l   j            E        occ.                                                              
     1  0  0.50     -6993.8440   2.0000                                                             
     2  0  0.50      -814.6047   2.0000                                                             
     2  1  1.50      -693.3689   6.0000                                                             
     3  0  0.50       -89.4732   2.0000                                                             
     3  1  1.50       -55.6373   6.0000                                                             
     3  2  2.50        -3.8151   7.0000                                                             
     4  0  0.50        -4.2551   1.0000                                                             
     4  3  2.50        -1.3606   0.0000                                                             
   Description                                                                                      
     l       E           TYP  RCUT    TYP  RCUT                                                     
     1    -55.6372668     23  2.000                                                                 
     1     -5.4423304     23  2.000                                                                 
     2     -3.8151096     23  2.200                                                                 
     2     -5.1756922     23  2.200                                                                 
     0     -4.2550951     23  2.200                                                                 
     0     27.2116520     23  2.200                                                                 
     3     -1.3605826     23  2.200                                                                 
  local pseudopotential read in
  partial core-charges read in
  partial kinetic energy density read in
  atomic valenz-charges read in
  non local Contribution for L=           1  read in
    real space projection operators read in
  non local Contribution for L=           1  read in
    real space projection operators read in
  non local Contribution for L=           2  read in
    real space projection operators read in
  non local Contribution for L=           2  read in
    real space projection operators read in
  non local Contribution for L=           0  read in
    real space projection operators read in
  non local Contribution for L=           0  read in
    real space projection operators read in
    PAW grid and wavefunctions read in
 
   number of l-projection  operators is LMAX  =           6
   number of lm-projection operators is LMMAX =          18
 
 POTCAR:    PAW_PBE Pt 04Feb2005                  
   SHA256 =  3ed90460adef76debcff1cfb73ee1349b515b1a3db03439735b44de3a8db7dc8 Pt/POTCAR             
   COPYR  = (c) Copyright 04Feb2005 Georg Kresse                                                    
   COPYR  = This file is part of the software VASP. Any use, copying, and all other rights are regul
   COPYR  = If you do not have a valid VASP license, you may not use, copy or distribute this file. 
   VRHFIN =Pt: s1d9                                                                                 
   LEXCH  = PE                                                                                      
   EATOM  =   729.1176 eV,   53.5886 Ry                                                             
                                                                                                    
   TITEL  = PAW_PBE Pt 04Feb2005                                                                    
   LULTRA =        F    use ultrasoft PP ?                                                          
   IUNSCR =        1    unscreen: 0-lin 1-nonlin 2-no                                               
   RPACOR =    2.330    partial core radius                                                         
   POMASS =  195.080; ZVAL   =   10.000    mass and valenz                                          
   RCORE  =    2.600    outmost cutoff radius                                                       
   RWIGS  =    2.750; RWIGS  =    1.455    wigner-seitz radius (au A)                               
   ENMAX  =  230.283; ENMIN  =  172.712 eV                                                          
   ICORE  =        3    local potential                                                             
   LCOR   =        T    correct aug charges                                                         
   LPAW   =        T    paw PP                                                                      
   EAUG   =  358.966                                                                                
   DEXC   =    0.000                                                                                
   RMAX   =    2.658    core radius for proj-oper                                                   
   RAUG   =    1.300    factor for augmentation sphere                                              
   RDEP   =    2.761    radius for radial grids                                                     
   RDEPT  =    2.203    core radius for aug-charge                                                  
                                                                                                    
   Atomic configuration                                                                             
   16 entries                                                                                       
     n  l   j            E        occ.                                                              
     1  0  0.50    -78401.1885   2.0000                                                             
     2  0  0.50    -13770.7750   2.0000                                                             
     2  1  1.50    -11931.0468   6.0000                                                             
     3  0  0.50     -3234.7234   2.0000                                                             
     3  1  1.50     -2699.2216   6.0000                                                             
     3  2  2.50     -2119.5714  10.0000                                                             
     4  0  0.50      -695.1528   2.0000                                                             
     4  1  1.50      -519.6034   6.0000                                                             
     4  2  2.50      -306.6786  10.0000                                                             
     4  3  3.50       -70.1041  14.0000                                                             
     5  0  0.50      -101.7747   2.0000                                                             
     5  1  1.50       -55.9873   6.0000                                                             
     5  2  2.50        -6.1423   9.0000                                                             
     6  0  0.50        -5.6573   1.0000                                                             
     6  1  1.50        -6.8029   0.0000                                                             
     5  3  2.50        -1.3606   0.0000                                                             
   Description                                                                                      
     l       E           TYP  RCUT    TYP  RCUT                                                     
     2     -6.1423404     23  2.500                                                                 
     2     -7.5029230     23  2.500                                                                 
     0     -5.6573207     23  2.500                                                                 
     0      0.7416693     23  2.500                                                                 
     1     -2.7211652     23  2.600                                                                 
     1     20.4087390     23  2.600                                                                 
     3     -1.3605826     23  2.500                                                                 
  local pseudopotential read in
  partial core-charges read in
  partial kinetic energy density read in
  atomic valenz-charges read in
  non local Contribution for L=           2  read in
    real space projection operators read in
  non local Contribution for L=           2  read in
    real space projection operators read in
  non local Contribution for L=           0  read in
    real space projection operators read in
  non local Contribution for L=           0  read in
    real space projection operators read in
  non local Contribution for L=           1  read in
    real space projection operators read in
  non local Contribution for L=           1  read in
    real space projection operators read in
    PAW grid and wavefunctions read in
 
   number of l-projection  operators is LMAX  =           6
   number of lm-projection operators is LMMAX =          18
 
  PAW_PBE Fe_pv 02Aug2007               :
 energy of atom  1       EATOM=-2457.4239
 kinetic energy error for atom=    0.0062 (will be added to EATOM!!)
  PAW_PBE Pt 04Feb2005                  :
 energy of atom  2       EATOM= -729.1176
 kinetic energy error for atom=    0.0032 (will be added to EATOM!!)
 
 
 POSCAR: Fe9 Pt3
  positions in direct lattice
  velocities in cartesian coordinates


 exchange-correlation table for PE
   RHO(1)=    0.500       N(1)  =     2000
   RHO(2)=  100.500       N(2)  =     4000
 


--------------------------------------------------------------------------------------------------------


 ion  position               nearest neighbor table
   1  0.000  0.500  0.167-   7 2.68   7 2.68   7 2.68   7 2.68  10 2.68   4 2.68  10 2.68   4 2.68
                             5 2.68   5 2.68  11 2.68  11 2.68
   2  0.000  0.500  0.500-   8 2.68   8 2.68   8 2.68   8 2.68  11 2.68  12 2.68  12 2.68  11 2.68
                             5 2.68   6 2.68   5 2.68   6 2.68
   3  0.000  0.500  0.833-   9 2.68   9 2.68   9 2.68   9 2.68  10 2.68   4 2.68  10 2.68   4 2.68
                             6 2.68   6 2.68  12 2.68  12 2.68
   4  0.500  0.500  0.000-  10 2.68  10 2.68  10 2.68  10 2.68   1 2.68   7 2.68   9 2.68   3 2.68
                             1 2.68   3 2.68   7 2.68   9 2.68
   5  0.500  0.500  0.333-  11 2.68  11 2.68  11 2.68  11 2.68   7 2.68   1 2.68   1 2.68   7 2.68
                             8 2.68   2 2.68   8 2.68   2 2.68
   6  0.500  0.500  0.667-  12 2.68  12 2.68  12 2.68  12 2.68   9 2.68   3 2.68   3 2.68   9 2.68
                             2 2.68   8 2.68   2 2.68   8 2.68
   7  0.500  0.000  0.167-   1 2.68   1 2.68   1 2.68   1 2.68   4 2.68  10 2.68  10 2.68   4 2.68
                             5 2.68   5 2.68  11 2.68  11 2.68
   8  0.500  0.000  0.500-   2 2.68   2 2.68   2 2.68   2 2.68  12 2.68  11 2.68  12 2.68  11 2.68
                             6 2.68   5 2.68   5 2.68   6 2.68
   9  0.500  0.000  0.833-   3 2.68   3 2.68   3 2.68   3 2.68   4 2.68  10 2.68  10 2.68   4 2.68
                             6 2.68   6 2.68  12 2.68  12 2.68
  10  0.000  0.000  0.000-   4 2.68   4 2.68   4 2.68   4 2.68   9 2.68   1 2.68   3 2.68   3 2.68
                             1 2.68   7 2.68   9 2.68   7 2.68
  11  0.000  0.000  0.333-   5 2.68   5 2.68   5 2.68   5 2.68   1 2.68   7 2.68   7 2.68   1 2.68
                             2 2.68   2 2.68   8 2.68   8 2.68
  12  0.000  0.000  0.667-   6 2.68   6 2.68   6 2.68   6 2.68   3 2.68   9 2.68   9 2.68   3 2.68
                             2 2.68   8 2.68   8 2.68   2 2.68
 
  LATTYP: Found a simple tetragonal cell.
 ALAT       =     3.7863859730
 C/A-ratio  =     3.0027070017
  
  Lattice vectors:
  
 A1 = (   3.7863859730,   0.0000000000,   0.0000000000)
 A2 = (   0.0000000000,   3.7863859730,   0.0000000000)
 A3 = (   0.0000000000,   0.0000000000,  11.3694076723)


Analysis of symmetry for initial positions (statically):
=====================================================================
 Subroutine PRICEL returns:
 Original cell was already a primitive cell.
 

 Routine SETGRP: Setting up the symmetry group for a 
 simple tetragonal supercell.


 Subroutine GETGRP returns: Found 16 space group operations
 (whereof 16 operations were pure point group operations)
 out of a pool of 16 trial point group operations.


The static configuration has the point symmetry D_4h.


Analysis of symmetry for dynamics (positions and initial velocities):
=====================================================================
 Subroutine PRICEL returns:
 Original cell was already a primitive cell.
 

 Routine SETGRP: Setting up the symmetry group for a 
 simple tetragonal supercell.


 Subroutine GETGRP returns: Found 16 space group operations
 (whereof 16 operations were pure point group operations)
 out of a pool of 16 trial point group operations.


The dynamic configuration has the point symmetry D_4h.


Analysis of structural, dynamic, and magnetic symmetry:
=====================================================================
 Subroutine PRICEL returns:
 Original cell was already a primitive cell.
 

 Routine SETGRP: Setting up the symmetry group for a 
 simple tetragonal supercell.


 Subroutine GETGRP returns: Found 16 space group operations
 (whereof 16 operations were pure point group operations)
 out of a pool of 16 trial point group operations.


The overall configuration has the point symmetry D_4h.


 Subroutine INISYM returns: Found 16 space group operations
 (whereof 16 operations are pure point group operations),
 and found     1 'primitive' translations


----------------------------------------------------------------------------------------

                                     Primitive cell                                     

  volume of cell :     163.0000

  direct lattice vectors                    reciprocal lattice vectors
     3.786385973  0.000000000  0.000000000     0.264104084  0.000000000  0.000000000
     0.000000000  3.786385973  0.000000000     0.000000000  0.264104084  0.000000000
     0.000000000  0.000000000 11.369407672     0.000000000  0.000000000  0.087955330

  length of vectors
     3.786385973  3.786385973 11.369407672     0.264104084  0.264104084  0.087955330

  position of ions in fractional coordinates (direct lattice)
     0.000000000  0.500000000  0.166577675
     0.000000000  0.500000000  0.500000000
     0.000000000  0.500000000  0.833422325
     0.500000000  0.500000000  0.000000000
     0.500000000  0.500000000  0.333274690
     0.500000000  0.500000000  0.666725310
     0.500000000  0.000000000  0.166577675
     0.500000000  0.000000000  0.500000000
     0.500000000  0.000000000  0.833422325
     0.000000000  0.000000000  0.000000000
     0.000000000  0.000000000  0.333275678
     0.000000000  0.000000000  0.666724322

  ion indices of the primitive-cell ions
   primitive index   ion index
                 1           1
                 2           2
                 3           3
                 4           4
                 5           5
                 6           6
                 7           7
                 8           8
                 9           9
                10          10
                11          11
                12          12

----------------------------------------------------------------------------------------

 
 
 KPOINTS: pymatgen with grid density = 8800 / numb

Automatic generation of k-mesh.
 Grid dimensions read from file:
 generate k-points for:   13   13    4

 Generating k-lattice:

  Cartesian coordinates                     Fractional coordinates (reciprocal lattice)
     0.020315699  0.000000000  0.000000000     0.076923077  0.000000000  0.000000000
     0.000000000  0.020315699  0.000000000     0.000000000  0.076923077  0.000000000
     0.000000000  0.000000000  0.021988832     0.000000000  0.000000000  0.250000000

  Length of vectors
     0.020315699  0.020315699  0.021988832

  Shift w.r.t. Gamma in fractional coordinates (k-lattice)
     0.000000000  0.000000000  0.000000000

 
 Subroutine IBZKPT returns following result:
 ===========================================
 
 Found     84 irreducible k-points:
 
 Following reciprocal coordinates:
            Coordinates               Weight
  0.000000  0.000000  0.000000      1.000000
  0.076923  0.000000  0.000000      4.000000
  0.153846  0.000000  0.000000      4.000000
  0.230769  0.000000  0.000000      4.000000
  0.307692  0.000000  0.000000      4.000000
  0.384615  0.000000  0.000000      4.000000
  0.461538  0.000000  0.000000      4.000000
  0.076923  0.076923  0.000000      4.000000
  0.153846  0.076923  0.000000      8.000000
  0.230769  0.076923  0.000000      8.000000
  0.307692  0.076923  0.000000      8.000000
  0.384615  0.076923  0.000000      8.000000
  0.461538  0.076923  0.000000      8.000000
  0.153846  0.153846  0.000000      4.000000
  0.230769  0.153846  0.000000      8.000000
  0.307692  0.153846  0.000000      8.000000
  0.384615  0.153846  0.000000      8.000000
  0.461538  0.153846  0.000000      8.000000
  0.230769  0.230769  0.000000      4.000000
  0.307692  0.230769  0.000000      8.000000
  0.384615  0.230769  0.000000      8.000000
  0.461538  0.230769  0.000000      8.000000
  0.307692  0.307692  0.000000      4.000000
  0.384615  0.307692  0.000000      8.000000
  0.461538  0.307692  0.000000      8.000000
  0.384615  0.384615  0.000000      4.000000
  0.461538  0.384615  0.000000      8.000000
  0.461538  0.461538  0.000000      4.000000
  0.000000  0.000000  0.250000      2.000000
  0.076923  0.000000  0.250000      8.000000
  0.153846  0.000000  0.250000      8.000000
  0.230769  0.000000  0.250000      8.000000
  0.307692  0.000000  0.250000      8.000000
  0.384615  0.000000  0.250000      8.000000
  0.461538  0.000000  0.250000      8.000000
  0.076923  0.076923  0.250000      8.000000
  0.153846  0.076923  0.250000     16.000000
  0.230769  0.076923  0.250000     16.000000
  0.307692  0.076923  0.250000     16.000000
  0.384615  0.076923  0.250000     16.000000
  0.461538  0.076923  0.250000     16.000000
  0.153846  0.153846  0.250000      8.000000
  0.230769  0.153846  0.250000     16.000000
  0.307692  0.153846  0.250000     16.000000
  0.384615  0.153846  0.250000     16.000000
  0.461538  0.153846  0.250000     16.000000
  0.230769  0.230769  0.250000      8.000000
  0.307692  0.230769  0.250000     16.000000
  0.384615  0.230769  0.250000     16.000000
  0.461538  0.230769  0.250000     16.000000
  0.307692  0.307692  0.250000      8.000000
  0.384615  0.307692  0.250000     16.000000
  0.461538  0.307692  0.250000     16.000000
  0.384615  0.384615  0.250000      8.000000
  0.461538  0.384615  0.250000     16.000000
  0.461538  0.461538  0.250000      8.000000
  0.000000  0.000000  0.500000      1.000000
  0.076923  0.000000  0.500000      4.000000
  0.153846  0.000000  0.500000      4.000000
  0.230769  0.000000  0.500000      4.000000
  0.307692  0.000000  0.500000      4.000000
  0.384615  0.000000  0.500000      4.000000
  0.461538  0.000000  0.500000      4.000000
  0.076923  0.076923  0.500000      4.000000
  0.153846  0.076923  0.500000      8.000000
  0.230769  0.076923  0.500000      8.000000
  0.307692  0.076923  0.500000      8.000000
  0.384615  0.076923  0.500000      8.000000
  0.461538  0.076923  0.500000      8.000000
  0.153846  0.153846  0.500000      4.000000
  0.230769  0.153846  0.500000      8.000000
  0.307692  0.153846  0.500000      8.000000
  0.384615  0.153846  0.500000      8.000000
  0.461538  0.153846  0.500000      8.000000
  0.230769  0.230769  0.500000      4.000000
  0.307692  0.230769  0.500000      8.000000
  0.384615  0.230769  0.500000      8.000000
  0.461538  0.230769  0.500000      8.000000
  0.307692  0.307692  0.500000      4.000000
  0.384615  0.307692  0.500000      8.000000
  0.461538  0.307692  0.500000      8.000000
  0.384615  0.384615  0.500000      4.000000
  0.461538  0.384615  0.500000      8.000000
  0.461538  0.461538  0.500000      4.000000
 
 Following cartesian coordinates:
            Coordinates               Weight
  0.000000  0.000000  0.000000      1.000000
  0.020316  0.000000  0.000000      4.000000
  0.040631  0.000000  0.000000      4.000000
  0.060947  0.000000  0.000000      4.000000
  0.081263  0.000000  0.000000      4.000000
  0.101578  0.000000  0.000000      4.000000
  0.121894  0.000000  0.000000      4.000000
  0.020316  0.020316  0.000000      4.000000
  0.040631  0.020316  0.000000      8.000000
  0.060947  0.020316  0.000000      8.000000
  0.081263  0.020316  0.000000      8.000000
  0.101578  0.020316  0.000000      8.000000
  0.121894  0.020316  0.000000      8.000000
  0.040631  0.040631  0.000000      4.000000
  0.060947  0.040631  0.000000      8.000000
  0.081263  0.040631  0.000000      8.000000
  0.101578  0.040631  0.000000      8.000000
  0.121894  0.040631  0.000000      8.000000
  0.060947  0.060947  0.000000      4.000000
  0.081263  0.060947  0.000000      8.000000
  0.101578  0.060947  0.000000      8.000000
  0.121894  0.060947  0.000000      8.000000
  0.081263  0.081263  0.000000      4.000000
  0.101578  0.081263  0.000000      8.000000
  0.121894  0.081263  0.000000      8.000000
  0.101578  0.101578  0.000000      4.000000
  0.121894  0.101578  0.000000      8.000000
  0.121894  0.121894  0.000000      4.000000
  0.000000  0.000000  0.021989      2.000000
  0.020316  0.000000  0.021989      8.000000
  0.040631  0.000000  0.021989      8.000000
  0.060947  0.000000  0.021989      8.000000
  0.081263  0.000000  0.021989      8.000000
  0.101578  0.000000  0.021989      8.000000
  0.121894  0.000000  0.021989      8.000000
  0.020316  0.020316  0.021989      8.000000
  0.040631  0.020316  0.021989     16.000000
  0.060947  0.020316  0.021989     16.000000
  0.081263  0.020316  0.021989     16.000000
  0.101578  0.020316  0.021989     16.000000
  0.121894  0.020316  0.021989     16.000000
  0.040631  0.040631  0.021989      8.000000
  0.060947  0.040631  0.021989     16.000000
  0.081263  0.040631  0.021989     16.000000
  0.101578  0.040631  0.021989     16.000000
  0.121894  0.040631  0.021989     16.000000
  0.060947  0.060947  0.021989      8.000000
  0.081263  0.060947  0.021989     16.000000
  0.101578  0.060947  0.021989     16.000000
  0.121894  0.060947  0.021989     16.000000
  0.081263  0.081263  0.021989      8.000000
  0.101578  0.081263  0.021989     16.000000
  0.121894  0.081263  0.021989     16.000000
  0.101578  0.101578  0.021989      8.000000
  0.121894  0.101578  0.021989     16.000000
  0.121894  0.121894  0.021989      8.000000
  0.000000  0.000000  0.043978      1.000000
  0.020316  0.000000  0.043978      4.000000
  0.040631  0.000000  0.043978      4.000000
  0.060947  0.000000  0.043978      4.000000
  0.081263  0.000000  0.043978      4.000000
  0.101578  0.000000  0.043978      4.000000
  0.121894  0.000000  0.043978      4.000000
  0.020316  0.020316  0.043978      4.000000
  0.040631  0.020316  0.043978      8.000000
  0.060947  0.020316  0.043978      8.000000
  0.081263  0.020316  0.043978      8.000000
  0.101578  0.020316  0.043978      8.000000
  0.121894  0.020316  0.043978      8.000000
  0.040631  0.040631  0.043978      4.000000
  0.060947  0.040631  0.043978      8.000000
  0.081263  0.040631  0.043978      8.000000
  0.101578  0.040631  0.043978      8.000000
  0.121894  0.040631  0.043978      8.000000
  0.060947  0.060947  0.043978      4.000000
  0.081263  0.060947  0.043978      8.000000
  0.101578  0.060947  0.043978      8.000000
  0.121894  0.060947  0.043978      8.000000
  0.081263  0.081263  0.043978      4.000000
  0.101578  0.081263  0.043978      8.000000
  0.121894  0.081263  0.043978      8.000000
  0.101578  0.101578  0.043978      4.000000
  0.121894  0.101578  0.043978      8.000000
  0.121894  0.121894  0.043978      4.000000
 


--------------------------------------------------------------------------------------------------------




 Dimension of arrays:
   k-points           NKPTS =     84   k-points in BZ     NKDIM =     84   number of bands    NBANDS=    128
   number of dos      NEDOS =    301   number of ions     NIONS =     12
   non local maximal  LDIM  =      6   non local SUM 2l+1 LMDIM =     18
   total plane-waves  NPLWV =  70560
   max r-space proj   IRMAX =      1   max aug-charges    IRDMAX=  26415
   dimension x,y,z NGX =    28 NGY =   28 NGZ =   90
   dimension x,y,z NGXF=    56 NGYF=   56 NGZF=  180
   support grid    NGXF=    56 NGYF=   56 NGZF=  180
   ions per type =               9   3
   NGX,Y,Z   is equivalent  to a cutoff of  12.29, 12.29, 13.16 a.u.
   NGXF,Y,Z  is equivalent  to a cutoff of  24.59, 24.59, 26.32 a.u.

 SYSTEM =  unknown system                          
 POSCAR =  Fe9 Pt3                                 

 Startparameter for this run:
   NWRITE =      2    write-flag & timer
   PREC   = accura    normal or accurate (medium, high low for compatibility)
   ISTART =      0    job   : 0-new  1-cont  2-samecut
   ICHARG =      2    charge: 1-file 2-atom 10-const
   ISPIN  =      2    spin polarized calculation?
   LNONCOLLINEAR =      F non collinear calculations
   LSORBIT =      F    spin-orbit coupling
   INIWAV =      1    electr: 0-lowe 1-rand  2-diag
   LASPH  =      F    aspherical Exc in radial PAW
 Electronic Relaxation 1
   ENCUT  =  520.0 eV  38.22 Ry    6.18 a.u.   7.04  7.04 21.14*2*pi/ulx,y,z
   ENINI  =  520.0     initial cutoff
   ENAUG  =  578.3 eV  augmentation charge cutoff
   NELM   =    200;   NELMIN=  2; NELMDL=  0     # of ELM steps 
   EDIFF  = 0.1E-05   stopping-criterion for ELM
   LREAL  =      F    real-space projection
   NLSPLINE    = F    spline interpolate recip. space projectors
   LCOMPAT=      F    compatible to vasp.4.4
   GGA_COMPAT  = T    GGA compatible to vasp.4.4-vasp.4.6
   LMAXPAW     = -100 max onsite density
   LMAXMIX     =    2 max onsite mixed and CHGCAR
   VOSKOWN=      0    Vosko Wilk Nusair interpolation
   ROPT   =    0.00000   0.00000
 Ionic relaxation
   EDIFFG = -.1E-01   stopping-criterion for IOM
   NSW    =    100    number of steps for IOM
   NBLOCK =      1;   KBLOCK =    100    inner block; outer block 
   IBRION =      2    ionic relax: 0-MD 1-quasi-New 2-CG
   NFREE  =      1    steps in history (QN), initial steepest desc. (CG)
   ISIF   =      4    stress and relaxation
   IWAVPR =     11    prediction:  0-non 1-charg 2-wave 3-comb
   ISYM   =      2    0-nonsym 1-usesym 2-fastsym
   LCORR  =      T    Harris-Foulkes like correction to forces

   POTIM  = 0.5000    time-step for ionic-motion
   TEIN   =    0.0    initial temperature
   TEBEG  =    0.0;   TEEND  =   0.0 temperature during run
   SMASS  =  -3.00    Nose mass-parameter (am)
   estimated Nose-frequenzy (Omega)   =  0.10E-29 period in steps = 0.13E+47 mass=  -0.328E-27a.u.
   SCALEE = 1.0000    scale energy and forces
   NPACO  =    256;   APACO  = 10.0  distance and # of slots for P.C.
   PSTRESS=    0.0 pullay stress

  Mass of Ions in am
   POMASS =  55.85195.08
  Ionic Valenz
   ZVAL   =  14.00 10.00
  Atomic Wigner-Seitz radii
   RWIGS  =  -1.00 -1.00
  virtual crystal weights 
   VCA    =   1.00  1.00
   NELECT =     156.0000    total number of electrons
   NUPDOWN=      -1.0000    fix difference up-down

 DOS related values:
   EMIN   =  10.00;   EMAX   =-10.00  energy-range for DOS
   EFERMI =   0.00;   METHOD = LEGACY      
   ISMEAR =     1;   SIGMA  =   0.20  broadening in eV -4-tet -1-fermi 0-gaus

 Electronic relaxation 2 (details)
   IALGO  =     58    algorithm
   LDIAG  =      T    sub-space diagonalisation (order eigenvalues)
   LSUBROT=      F    optimize rotation matrix (better conditioning)
   TURBO    =      0    0=normal 1=particle mesh
   IRESTART =      0    0=no restart 2=restart with 2 vectors
   NREBOOT  =      0    no. of reboots
   NMIN     =      0    reboot dimension
   EREF     =   0.00    reference energy to select bands
   IMIX   =      4    mixing-type and parameters
     AMIX     =   0.40;   BMIX     =  1.00
     AMIX_MAG =   1.60;   BMIX_MAG =  1.00
     AMIN     =   0.10
     WC   =   100.;   INIMIX=   1;  MIXPRE=   1;  MAXMIX= -45

 Intra band minimization:
   WEIMIN = 0.0010     energy-eigenvalue tresh-hold
   EBREAK =  0.20E-08  absolut break condition
   DEPER  =   0.30     relativ break condition  

   TIME   =   0.40     timestep for ELM

  volume/ion in A,a.u.               =      13.58        91.66
  Fermi-wavevector in a.u.,A,eV,Ry     =   1.613320  3.048733 35.413260  2.602801
  Thomas-Fermi vector in A             =   2.708408
 
 Write flags
   LWAVE        =      F    write WAVECAR
   LDOWNSAMPLE  =      F    k-point downsampling of WAVECAR
   LCHARG       =      T    write CHGCAR
   LVTOT        =      F    write LOCPOT, total local potential
   LVHAR        =      F    write LOCPOT, Hartree potential only
   WRT_POTENTIAL= false  ! write potential to hdf5 file
   LELF         =      F    write electronic localiz. function (ELF)
   LORBIT       =     11    0 simple, 1 ext, 2 COOP (PROOUT), +10 PAW based schemes


 Dipole corrections
   LMONO      =      F    monopole corrections only (constant potential shift)
   LDIPOL     =      F    correct potential (dipole corrections)
   IDIPOL     =      0    1-x, 2-y, 3-z, 4-all directions 
   EPSILON    =  1.0000000 bulk dielectric constant
   LVACPOTAV  =      F  vacuum potentials using an averaging scheme for the charge density
   VACPOTFLAT =  0.1000000 required flatness to determine vacuum potential
 Exchange correlation treatment:
   GGA     = PE    functional components
   XC_C    = 1    coefficients multiplying the functional components
   LIBXC   =     F    Libxc                    
   VOSKOWN =     0    Vosko Wilk Nusair interpolation
   LHFCALC =     F    Hartree Fock is set to
   LHFONE  =     F    Hartree Fock one center treatment
   AEXX    =    0.0000 exact exchange contribution

 Parameters of functionals:
   PE:
     No parameter
 
 Van der Waals corrections
   IVDW    =     0    specifies the selected vdW correction

 Linear response parameters
   LEPSILON=     F    determine dielectric tensor
   LRPA    =     F    only Hartree local field effects (RPA)
   LNABLA  =     F    use nabla operator in PAW spheres
   LVEL    =     F    velocity operator in full k-point grid
   CSHIFT  =0.1000    complex shift for real part using Kramers Kronig
   OMEGAMAX=  -1.0    maximum frequency
   DEG_THRESHOLD= 0.2000000E-02 threshold for treating states as degnerate
   RTIME   =   -0.100 relaxation time in fs
  (WPLASMAI=    0.000 imaginary part of plasma frequency in eV, 0.658/RTIME)
   DFIELD  = 0.0000000 0.0000000 0.0000000 field for delta impulse in time
 
  Optional k-point grid parameters
   LKPOINTS_OPT  =     F    use optional k-point grid
   KPOINTS_OPT_MODE=     1    mode for optional k-point grid
 
 Orbital magnetization related:
   ORBITALMAG=     F  switch on orbital magnetization
   LCHIMAG   =     F  perturbation theory with respect to B field
   DQ        =  0.001000  dq finite difference perturbation B field
   LLRAUG    =     F  two centre corrections for induced B field
   LBONE     =     F  B-component reconstruction in AE one-centre
   LVGVCALC  =     T  calculate vGv susceptibility
   LVGVAPPL  =     F  apply vGv susceptibility instead of pGv for G=0

 Random number generation:
   RANDOM_GENERATOR = DEFAULT
   PCG_SEED         = not used


--------------------------------------------------------------------------------------------------------


 conjugate gradient relaxation of ions
 charge density and potential will be updated during run
 spin polarized calculation
 Conjugate gradient for all bands (Freysoldt, et al. PRB 79, 241103 (2009))
 preconditioned conjugated gradient                                        
 perform sub-space diagonalisation
    before iterative eigenvector-optimisation
 modified Broyden-mixing scheme, WC =      100.0
 initial mixing is a Kerker type mixing with AMIX =  0.4000 and BMIX =      1.0000
 Hartree-type preconditioning will be used
 using additional bands           50
 reciprocal scheme for non local part
 use partial core corrections
 no Harris-corrections to forces 
 use gradient corrections 
 use of overlap-Matrix (Vanderbilt PP)
 Methfessel and Paxton  Order N= 1 SIGMA  =   0.20


--------------------------------------------------------------------------------------------------------


  energy-cutoff  :      520.00
  volume of cell :      163.00
      direct lattice vectors                 reciprocal lattice vectors
     3.786385973  0.000000000  0.000000000     0.264104084  0.000000000  0.000000000
     0.000000000  3.786385973  0.000000000     0.000000000  0.264104084  0.000000000
     0.000000000  0.000000000 11.369407672     0.000000000  0.000000000  0.087955330

  length of vectors
     3.786385973  3.786385973 11.369407672     0.264104084  0.264104084  0.087955330


 
 k-points in units of 2pi/SCALE and weight: pymatgen with grid density = 8800 / numb
   0.00000000  0.00000000  0.00000000       0.001
   0.02031570  0.00000000  0.00000000       0.006
   0.04063140  0.00000000  0.00000000       0.006
   0.06094710  0.00000000  0.00000000       0.006
   0.08126280  0.00000000  0.00000000       0.006
   0.10157849  0.00000000  0.00000000       0.006
   0.12189419  0.00000000  0.00000000       0.006
   0.02031570  0.02031570  0.00000000       0.006
   0.04063140  0.02031570  0.00000000       0.012
   0.06094710  0.02031570  0.00000000       0.012
   0.08126280  0.02031570  0.00000000       0.012
   0.10157849  0.02031570  0.00000000       0.012
   0.12189419  0.02031570  0.00000000       0.012
   0.04063140  0.04063140  0.00000000       0.006
   0.06094710  0.04063140  0.00000000       0.012
   0.08126280  0.04063140  0.00000000       0.012
   0.10157849  0.04063140  0.00000000       0.012
   0.12189419  0.04063140  0.00000000       0.012
   0.06094710  0.06094710  0.00000000       0.006
   0.08126280  0.06094710  0.00000000       0.012
   0.10157849  0.06094710  0.00000000       0.012
   0.12189419  0.06094710  0.00000000       0.012
   0.08126280  0.08126280  0.00000000       0.006
   0.10157849  0.08126280  0.00000000       0.012
   0.12189419  0.08126280  0.00000000       0.012
   0.10157849  0.10157849  0.00000000       0.006
   0.12189419  0.10157849  0.00000000       0.012
   0.12189419  0.12189419  0.00000000       0.006
   0.00000000  0.00000000  0.02198883       0.003
   0.02031570  0.00000000  0.02198883       0.012
   0.04063140  0.00000000  0.02198883       0.012
   0.06094710  0.00000000  0.02198883       0.012
   0.08126280  0.00000000  0.02198883       0.012
   0.10157849  0.00000000  0.02198883       0.012
   0.12189419  0.00000000  0.02198883       0.012
   0.02031570  0.02031570  0.02198883       0.012
   0.04063140  0.02031570  0.02198883       0.024
   0.06094710  0.02031570  0.02198883       0.024
   0.08126280  0.02031570  0.02198883       0.024
   0.10157849  0.02031570  0.02198883       0.024
   0.12189419  0.02031570  0.02198883       0.024
   0.04063140  0.04063140  0.02198883       0.012
   0.06094710  0.04063140  0.02198883       0.024
   0.08126280  0.04063140  0.02198883       0.024
   0.10157849  0.04063140  0.02198883       0.024
   0.12189419  0.04063140  0.02198883       0.024
   0.06094710  0.06094710  0.02198883       0.012
   0.08126280  0.06094710  0.02198883       0.024
   0.10157849  0.06094710  0.02198883       0.024
   0.12189419  0.06094710  0.02198883       0.024
   0.08126280  0.08126280  0.02198883       0.012
   0.10157849  0.08126280  0.02198883       0.024
   0.12189419  0.08126280  0.02198883       0.024
   0.10157849  0.10157849  0.02198883       0.012
   0.12189419  0.10157849  0.02198883       0.024
   0.12189419  0.12189419  0.02198883       0.012
   0.00000000  0.00000000  0.04397766       0.001
   0.02031570  0.00000000  0.04397766       0.006
   0.04063140  0.00000000  0.04397766       0.006
   0.06094710  0.00000000  0.04397766       0.006
   0.08126280  0.00000000  0.04397766       0.006
   0.10157849  0.00000000  0.04397766       0.006
   0.12189419  0.00000000  0.04397766       0.006
   0.02031570  0.02031570  0.04397766       0.006
   0.04063140  0.02031570  0.04397766       0.012
   0.06094710  0.02031570  0.04397766       0.012
   0.08126280  0.02031570  0.04397766       0.012
   0.10157849  0.02031570  0.04397766       0.012
   0.12189419  0.02031570  0.04397766       0.012
   0.04063140  0.04063140  0.04397766       0.006
   0.06094710  0.04063140  0.04397766       0.012
   0.08126280  0.04063140  0.04397766       0.012
   0.10157849  0.04063140  0.04397766       0.012
   0.12189419  0.04063140  0.04397766       0.012
   0.06094710  0.06094710  0.04397766       0.006
   0.08126280  0.06094710  0.04397766       0.012
   0.10157849  0.06094710  0.04397766       0.012
   0.12189419  0.06094710  0.04397766       0.012
   0.08126280  0.08126280  0.04397766       0.006
   0.10157849  0.08126280  0.04397766       0.012
   0.12189419  0.08126280  0.04397766       0.012
   0.10157849  0.10157849  0.04397766       0.006
   0.12189419  0.10157849  0.04397766       0.012
   0.12189419  0.12189419  0.04397766       0.006
 
 k-points in reciprocal lattice and weights: pymatgen with grid density = 8800 / numb
   0.00000000  0.00000000  0.00000000       0.001
   0.07692308  0.00000000  0.00000000       0.006
   0.15384615  0.00000000  0.00000000       0.006
   0.23076923  0.00000000  0.00000000       0.006
   0.30769231  0.00000000  0.00000000       0.006
   0.38461538  0.00000000  0.00000000       0.006
   0.46153846  0.00000000  0.00000000       0.006
   0.07692308  0.07692308  0.00000000       0.006
   0.15384615  0.07692308  0.00000000       0.012
   0.23076923  0.07692308  0.00000000       0.012
   0.30769231  0.07692308  0.00000000       0.012
   0.38461538  0.07692308  0.00000000       0.012
   0.46153846  0.07692308  0.00000000       0.012
   0.15384615  0.15384615  0.00000000       0.006
   0.23076923  0.15384615  0.00000000       0.012
   0.30769231  0.15384615  0.00000000       0.012
   0.38461538  0.15384615  0.00000000       0.012
   0.46153846  0.15384615  0.00000000       0.012
   0.23076923  0.23076923  0.00000000       0.006
   0.30769231  0.23076923  0.00000000       0.012
   0.38461538  0.23076923  0.00000000       0.012
   0.46153846  0.23076923  0.00000000       0.012
   0.30769231  0.30769231  0.00000000       0.006
   0.38461538  0.30769231  0.00000000       0.012
   0.46153846  0.30769231  0.00000000       0.012
   0.38461538  0.38461538  0.00000000       0.006
   0.46153846  0.38461538  0.00000000       0.012
   0.46153846  0.46153846  0.00000000       0.006
   0.00000000  0.00000000  0.25000000       0.003
   0.07692308  0.00000000  0.25000000       0.012
   0.15384615  0.00000000  0.25000000       0.012
   0.23076923  0.00000000  0.25000000       0.012
   0.30769231  0.00000000  0.25000000       0.012
   0.38461538  0.00000000  0.25000000       0.012
   0.46153846  0.00000000  0.25000000       0.012
   0.07692308  0.07692308  0.25000000       0.012
   0.15384615  0.07692308  0.25000000       0.024
   0.23076923  0.07692308  0.25000000       0.024
   0.30769231  0.07692308  0.25000000       0.024
   0.38461538  0.07692308  0.25000000       0.024
   0.46153846  0.07692308  0.25000000       0.024
   0.15384615  0.15384615  0.25000000       0.012
   0.23076923  0.15384615  0.25000000       0.024
   0.30769231  0.15384615  0.25000000       0.024
   0.38461538  0.15384615  0.25000000       0.024
   0.46153846  0.15384615  0.25000000       0.024
   0.23076923  0.23076923  0.25000000       0.012
   0.30769231  0.23076923  0.25000000       0.024
   0.38461538  0.23076923  0.25000000       0.024
   0.46153846  0.23076923  0.25000000       0.024
   0.30769231  0.30769231  0.25000000       0.012
   0.38461538  0.30769231  0.25000000       0.024
   0.46153846  0.30769231  0.25000000       0.024
   0.38461538  0.38461538  0.25000000       0.012
   0.46153846  0.38461538  0.25000000       0.024
   0.46153846  0.46153846  0.25000000       0.012
   0.00000000  0.00000000  0.50000000       0.001
   0.07692308  0.00000000  0.50000000       0.006
   0.15384615  0.00000000  0.50000000       0.006
   0.23076923  0.00000000  0.50000000       0.006
   0.30769231  0.00000000  0.50000000       0.006
   0.38461538  0.00000000  0.50000000       0.006
   0.46153846  0.00000000  0.50000000       0.006
   0.07692308  0.07692308  0.50000000       0.006
   0.15384615  0.07692308  0.50000000       0.012
   0.23076923  0.07692308  0.50000000       0.012
   0.30769231  0.07692308  0.50000000       0.012
   0.38461538  0.07692308  0.50000000       0.012
   0.46153846  0.07692308  0.50000000       0.012
   0.15384615  0.15384615  0.50000000       0.006
   0.23076923  0.15384615  0.50000000       0.012
   0.30769231  0.15384615  0.50000000       0.012
   0.38461538  0.15384615  0.50000000       0.012
   0.46153846  0.15384615  0.50000000       0.012
   0.23076923  0.23076923  0.50000000       0.006
   0.30769231  0.23076923  0.50000000       0.012
   0.38461538  0.23076923  0.50000000       0.012
   0.46153846  0.23076923  0.50000000       0.012
   0.30769231  0.30769231  0.50000000       0.006
   0.38461538  0.30769231  0.50000000       0.012
   0.46153846  0.30769231  0.50000000       0.012
   0.38461538  0.38461538  0.50000000       0.006
   0.46153846  0.38461538  0.50000000       0.012
   0.46153846  0.46153846  0.50000000       0.006
 
 position of ions in fractional coordinates (direct lattice) 
   0.00000000  0.50000000  0.16657767
   0.00000000  0.50000000  0.50000000
   0.00000000  0.50000000  0.83342233
   0.50000000  0.50000000  0.00000000
   0.50000000  0.50000000  0.33327469
   0.50000000  0.50000000  0.66672531
   0.50000000  0.00000000  0.16657767
   0.50000000  0.00000000  0.50000000
   0.50000000  0.00000000  0.83342233
   0.00000000  0.00000000  0.00000000
   0.00000000  0.00000000  0.33327568
   0.00000000  0.00000000  0.66672432
 
 position of ions in cartesian coordinates  (Angst):
   0.00000000  1.89319299  1.89388950
   0.00000000  1.89319299  5.68470384
   0.00000000  1.89319299  9.47551818
   1.89319299  1.89319299  0.00000000
   1.89319299  1.89319299  3.78913582
   1.89319299  1.89319299  7.58027186
   1.89319299  0.00000000  1.89388950
   1.89319299  0.00000000  5.68470384
   1.89319299  0.00000000  9.47551818
   0.00000000  0.00000000  0.00000000
   0.00000000  0.00000000  3.78914705
   0.00000000  0.00000000  7.58026062
 


--------------------------------------------------------------------------------------------------------


 k-point     1 :   0.0000 0.0000 0.0000  plane waves:    4335
 k-point     2 :   0.0769 0.0000 0.0000  plane waves:    4364
 k-point     3 :   0.1538 0.0000 0.0000  plane waves:    4368
 k-point     4 :   0.2308 0.0000 0.0000  plane waves:    4356
 k-point     5 :   0.3077 0.0000 0.0000  plane waves:    4370
 k-point     6 :   0.3846 0.0000 0.0000  plane waves:    4392
 k-point     7 :   0.4615 0.0000 0.0000  plane waves:    4392
 k-point     8 :   0.0769 0.0769 0.0000  plane waves:    4360
 k-point     9 :   0.1538 0.0769 0.0000  plane waves:    4367
 k-point    10 :   0.2308 0.0769 0.0000  plane waves:    4382
 k-point    11 :   0.3077 0.0769 0.0000  plane waves:    4381
 k-point    12 :   0.3846 0.0769 0.0000  plane waves:    4392
 k-point    13 :   0.4615 0.0769 0.0000  plane waves:    4392
 k-point    14 :   0.1538 0.1538 0.0000  plane waves:    4366
 k-point    15 :   0.2308 0.1538 0.0000  plane waves:    4374
 k-point    16 :   0.3077 0.1538 0.0000  plane waves:    4386
 k-point    17 :   0.3846 0.1538 0.0000  plane waves:    4390
 k-point    18 :   0.4615 0.1538 0.0000  plane waves:    4404
 k-point    19 :   0.2308 0.2308 0.0000  plane waves:    4398
 k-point    20 :   0.3077 0.2308 0.0000  plane waves:    4377
 k-point    21 :   0.3846 0.2308 0.0000  plane waves:    4401
 k-point    22 :   0.4615 0.2308 0.0000  plane waves:    4409
 k-point    23 :   0.3077 0.3077 0.0000  plane waves:    4400
 k-point    24 :   0.3846 0.3077 0.0000  plane waves:    4408
 k-point    25 :   0.4615 0.3077 0.0000  plane waves:    4403
 k-point    26 :   0.3846 0.3846 0.0000  plane waves:    4406
 k-point    27 :   0.4615 0.3846 0.0000  plane waves:    4393
 k-point    28 :   0.4615 0.4615 0.0000  plane waves:    4408
 k-point    29 :   0.0000 0.0000 0.2500  plane waves:    4346
 k-point    30 :   0.0769 0.0000 0.2500  plane waves:    4339
 k-point    31 :   0.1538 0.0000 0.2500  plane waves:    4356
 k-point    32 :   0.2308 0.0000 0.2500  plane waves:    4379
 k-point    33 :   0.3077 0.0000 0.2500  plane waves:    4385
 k-point    34 :   0.3846 0.0000 0.2500  plane waves:    4392
 k-point    35 :   0.4615 0.0000 0.2500  plane waves:    4402
 k-point    36 :   0.0769 0.0769 0.2500  plane waves:    4355
 k-point    37 :   0.1538 0.0769 0.2500  plane waves:    4362
 k-point    38 :   0.2308 0.0769 0.2500  plane waves:    4375
 k-point    39 :   0.3077 0.0769 0.2500  plane waves:    4388
 k-point    40 :   0.3846 0.0769 0.2500  plane waves:    4396
 k-point    41 :   0.4615 0.0769 0.2500  plane waves:    4393
 k-point    42 :   0.1538 0.1538 0.2500  plane waves:    4378
 k-point    43 :   0.2308 0.1538 0.2500  plane waves:    4386
 k-point    44 :   0.3077 0.1538 0.2500  plane waves:    4389
 k-point    45 :   0.3846 0.1538 0.2500  plane waves:    4401
 k-point    46 :   0.4615 0.1538 0.2500  plane waves:    4402
 k-point    47 :   0.2308 0.2308 0.2500  plane waves:    4392
 k-point    48 :   0.3077 0.2308 0.2500  plane waves:    4398
 k-point    49 :   0.3846 0.2308 0.2500  plane waves:    4407
 k-point    50 :   0.4615 0.2308 0.2500  plane waves:    4410
 k-point    51 :   0.3077 0.3077 0.2500  plane waves:    4399
 k-point    52 :   0.3846 0.3077 0.2500  plane waves:    4395
 k-point    53 :   0.4615 0.3077 0.2500  plane waves:    4406
 k-point    54 :   0.3846 0.3846 0.2500  plane waves:    4396
 k-point    55 :   0.4615 0.3846 0.2500  plane waves:    4395
 k-point    56 :   0.4615 0.4615 0.2500  plane waves:    4393
 k-point    57 :   0.0000 0.0000 0.5000  plane waves:    4338
 k-point    58 :   0.0769 0.0000 0.5000  plane waves:    4344
 k-point    59 :   0.1538 0.0000 0.5000  plane waves:    4344
 k-point    60 :   0.2308 0.0000 0.5000  plane waves:    4364
 k-point    61 :   0.3077 0.0000 0.5000  plane waves:    4396
 k-point    62 :   0.3846 0.0000 0.5000  plane waves:    4390
 k-point    63 :   0.4615 0.0000 0.5000  plane waves:    4404
 k-point    64 :   0.0769 0.0769 0.5000  plane waves:    4350
 k-point    65 :   0.1538 0.0769 0.5000  plane waves:    4352
 k-point    66 :   0.2308 0.0769 0.5000  plane waves:    4380
 k-point    67 :   0.3077 0.0769 0.5000  plane waves:    4392
 k-point    68 :   0.3846 0.0769 0.5000  plane waves:    4398
 k-point    69 :   0.4615 0.0769 0.5000  plane waves:    4400
 k-point    70 :   0.1538 0.1538 0.5000  plane waves:    4386
 k-point    71 :   0.2308 0.1538 0.5000  plane waves:    4402
 k-point    72 :   0.3077 0.1538 0.5000  plane waves:    4400
 k-point    73 :   0.3846 0.1538 0.5000  plane waves:    4402
 k-point    74 :   0.4615 0.1538 0.5000  plane waves:    4392
 k-point    75 :   0.2308 0.2308 0.5000  plane waves:    4388
 k-point    76 :   0.3077 0.2308 0.5000  plane waves:    4394
 k-point    77 :   0.3846 0.2308 0.5000  plane waves:    4410
 k-point    78 :   0.4615 0.2308 0.5000  plane waves:    4400
 k-point    79 :   0.3077 0.3077 0.5000  plane waves:    4390
 k-point    80 :   0.3846 0.3077 0.5000  plane waves:    4394
 k-point    81 :   0.4615 0.3077 0.5000  plane waves:    4404
 k-point    82 :   0.3846 0.3846 0.5000  plane waves:    4400
 k-point    83 :   0.4615 0.3846 0.5000  plane waves:    4400
 k-point    84 :   0.4615 0.4615 0.5000  plane waves:    4400

 maximum and minimum number of plane-waves per node :      4410     4335

 maximum number of plane-waves:      4410
 maximum index in each direction: 
   IXMAX=    7   IYMAX=    7   IZMAX=   21
   IXMIN=   -7   IYMIN=   -7   IZMIN=  -21


 serial   3D FFT for wavefunctions
 parallel 3D FFT for charge:
    minimum data exchange during FFTs selected (reduces bandwidth)


 total amount of memory used by VASP MPI-rank0   295971. kBytes
=======================================================================

   base      :      30000. kBytes
   nonl-proj :     107679. kBytes
   fftplans  :        955. kBytes
   grid      :       7297. kBytes
   one-center:        373. kBytes
   wavefun   :     149667. kBytes
 
     INWAV:  cpu time      0.0000: real time      0.0000
 Broyden mixing: mesh for mixing (old mesh)
   NGX = 15   NGY = 15   NGZ = 43
  (NGX  = 56   NGY  = 56   NGZ  =180)
  gives a total of   9675 points

 initial charge density was supplied:
 charge density of overlapping atoms calculated
 number of electron     156.0000000 magnetization      26.2350000
 charge density for first step will be calculated from the start-wavefunctions


--------------------------------------------------------------------------------------------------------


 Maximum index for augmentation-charges         1069 (set IRDMAX)


--------------------------------------------------------------------------------------------------------


 First call to EWALD:  gamma=   0.324
 Maximum number of real-space cells 4x 4x 2
 Maximum number of reciprocal cells 2x 2x 5

    FEWALD:  cpu time      0.0028: real time      0.0029


--------------------------------------- Ionic step        1  -------------------------------------------




--------------------------------------- Iteration      1(   1)  ---------------------------------------


    POTLOK:  cpu time      0.0334: real time      0.0337
    SETDIJ:  cpu time      0.0148: real time      0.0149
    TRIAL :  cpu time      6.1279: real time      6.1768
    CORREC:  cpu time      0.0027: real time      0.0027
    --------------------------------------------
      LOOP:  cpu time      6.3059: real time      6.3580

 eigenvalue-minimisations  : 43008
 total energy-change (2. order) : 0.1772108E+04  (-0.9185724E+04)
 number of electron     156.0000000 magnetization      26.2350000
 augmentation part      156.0000000 magnetization      26.2350000

 Free energy of the ion-electron system (eV)
  ---------------------------------------------------
  alpha Z        PSCENC =      1044.11122432
  Ewald energy   TEWEN  =    -17829.51883959
  -Hartree energ DENC   =     -6126.66996802
  -exchange      EXHF   =         0.00000000
  -V(xc)+E(xc)   XCENC  =       655.88805153
  PAW double counting   =     20093.42043762   -20817.29574205
  entropy T*S    EENTRO =        -0.00060430
  eigenvalues    EBANDS =       448.07034806
  atomic energy  EATOM  =     24304.10294433
  ---------------------------------------------------
  free energy    TOTEN  =      1772.10785188 eV

  energy without entropy =     1772.10845618  energy(sigma->0) =     1772.10805332


--------------------------------------------------------------------------------------------------------




--------------------------------------- Iteration      1(   2)  ---------------------------------------


    TRIAL :  cpu time      6.1108: real time      6.1549
    CORREC:  cpu time      0.0026: real time      0.0026
    --------------------------------------------
      LOOP:  cpu time      6.1278: real time      6.1785

 eigenvalue-minimisations  : 43008
 total energy-change (2. order) :-0.1765518E+04  (-0.1673242E+04)
 number of electron     156.0000000 magnetization      26.2350000
 augmentation part      156.0000000 magnetization      26.2350000

 Free energy of the ion-electron system (eV)
  ---------------------------------------------------
  alpha Z        PSCENC =      1044.11122432
  Ewald energy   TEWEN  =    -17829.51883959
  -Hartree energ DENC   =     -6126.66996802
  -exchange      EXHF   =         0.00000000
  -V(xc)+E(xc)   XCENC  =       655.88805153
  PAW double counting   =     20093.42043762   -20817.29574205
  entropy T*S    EENTRO =        -0.00001031
  eigenvalues    EBANDS =     -1317.44795051
  atomic energy  EATOM  =     24304.10294433
  ---------------------------------------------------
  free energy    TOTEN  =         6.59014731 eV

  energy without entropy =        6.59015762  energy(sigma->0) =        6.59015074


--------------------------------------------------------------------------------------------------------




--------------------------------------- Iteration      1(   3)  ---------------------------------------


    TRIAL :  cpu time      7.3430: real time      7.3928
    CORREC:  cpu time      0.0025: real time      0.0025
    --------------------------------------------
      LOOP:  cpu time      7.3622: real time      7.4170

 eigenvalue-minimisations  : 50912
 total energy-change (2. order) :-0.1089548E+03  (-0.1071459E+03)
 number of electron     156.0000000 magnetization      26.2350000
 augmentation part      156.0000000 magnetization      26.2350000

 Free energy of the ion-electron system (eV)
  ---------------------------------------------------
  alpha Z        PSCENC =      1044.11122432
  Ewald energy   TEWEN  =    -17829.51883959
  -Hartree energ DENC   =     -6126.66996802
  -exchange      EXHF   =         0.00000000
  -V(xc)+E(xc)   XCENC  =       655.88805153
  PAW double counting   =     20093.42043762   -20817.29574205
  entropy T*S    EENTRO =        -0.00619074
  eigenvalues    EBANDS =     -1426.39658604
  atomic energy  EATOM  =     24304.10294433
  ---------------------------------------------------
  free energy    TOTEN  =      -102.36466866 eV

  energy without entropy =     -102.35847792  energy(sigma->0) =     -102.36260508


--------------------------------------------------------------------------------------------------------




--------------------------------------- Iteration      1(   4)  ---------------------------------------


    TRIAL :  cpu time      6.5331: real time      6.5796
    CORREC:  cpu time      0.0026: real time      0.0026
    --------------------------------------------
      LOOP:  cpu time      6.5531: real time      6.6039

 eigenvalue-minimisations  : 45792
 total energy-change (2. order) :-0.1632434E+01  (-0.1632035E+01)
 number of electron     156.0000000 magnetization      26.2350000
 augmentation part      156.0000000 magnetization      26.2350000

 Free energy of the ion-electron system (eV)
  ---------------------------------------------------
  alpha Z        PSCENC =      1044.11122432
  Ewald energy   TEWEN  =    -17829.51883959
  -Hartree energ DENC   =     -6126.66996802
  -exchange      EXHF   =         0.00000000
  -V(xc)+E(xc)   XCENC  =       655.88805153
  PAW double counting   =     20093.42043762   -20817.29574205
  entropy T*S    EENTRO =        -0.00637797
  eigenvalues    EBANDS =     -1428.02883302
  atomic energy  EATOM  =     24304.10294433
  ---------------------------------------------------
  free energy    TOTEN  =      -103.99710286 eV

  energy without entropy =     -103.99072489  energy(sigma->0) =     -103.99497687


--------------------------------------------------------------------------------------------------------




--------------------------------------- Iteration      1(   5)  ---------------------------------------


    TRIAL :  cpu time      7.6772: real time      7.7335
    CORREC:  cpu time      0.0026: real time      0.0026
    CHARGE:  cpu time      0.1912: real time      0.1927
    --------------------------------------------
      LOOP:  cpu time      7.8921: real time      7.9502

 eigenvalue-minimisations  : 52640
 total energy-change (2. order) :-0.3291464E-01  (-0.3291386E-01)
 number of electron     156.0000014 magnetization      23.7751400
 augmentation part       79.4530579 magnetization      16.7237098

 Free energy of the ion-electron system (eV)
  ---------------------------------------------------
  alpha Z        PSCENC =      1044.11122432
  Ewald energy   TEWEN  =    -17829.51883959
  -Hartree energ DENC   =     -6126.66996802
  -exchange      EXHF   =         0.00000000
  -V(xc)+E(xc)   XCENC  =       655.88805153
  PAW double counting   =     20093.42043762   -20817.29574205
  entropy T*S    EENTRO =        -0.00638051
  eigenvalues    EBANDS =     -1428.06174511
  atomic energy  EATOM  =     24304.10294433
  ---------------------------------------------------
  free energy    TOTEN  =      -104.03001750 eV

  energy without entropy =     -104.02363698  energy(sigma->0) =     -104.02789066


--------------------------------------------------------------------------------------------------------




--------------------------------------- Iteration      1(   6)  ---------------------------------------


    POTLOK:  cpu time      0.0244: real time      0.0246
    SETDIJ:  cpu time      0.0084: real time      0.0084
    TRIAL :  cpu time      2.8710: real time      2.9008
    CORREC:  cpu time      1.2250: real time      1.2377
    CHARGE:  cpu time      0.1791: real time      0.1800
    --------------------------------------------
      LOOP:  cpu time      4.3286: real time      4.3725

 eigenvalue-minimisations  :     0
 total energy-change (2. order) : 0.4869614E+02  (-0.3130458E+02)
 number of electron     156.0000013 magnetization      24.4827303
 augmentation part       83.6678373 magnetization      17.9372453

 Free energy of the ion-electron system (eV)
  ---------------------------------------------------
  alpha Z        PSCENC =      1044.11122432
  Ewald energy   TEWEN  =    -17829.51883959
  -Hartree energ DENC   =     -4993.80056773
  -exchange      EXHF   =         0.00000000
  -V(xc)+E(xc)   XCENC  =       609.86141828
  PAW double counting   =     20751.15003447   -21415.64709227
  entropy T*S    EENTRO =         0.01692864
  eigenvalues    EBANDS =     -2525.58661469
  atomic energy  EATOM  =     24304.10294433
  ---------------------------------------------------
  free energy    TOTEN  =       -55.33387340 eV

  energy without entropy =      -55.35080204  energy(sigma->0) =      -55.33951628


--------------------------------------------------------------------------------------------------------




--------------------------------------- Iteration      1(   7)  ---------------------------------------


    POTLOK:  cpu time      0.0238: real time      0.0240
    SETDIJ:  cpu time      0.0077: real time      0.0077
    TRIAL :  cpu time      2.9102: real time      2.9400
    CORREC:  cpu time      1.1508: real time      1.1624
    CHARGE:  cpu time      0.1747: real time      0.1757
    --------------------------------------------
      LOOP:  cpu time      4.2849: real time      4.3317

 eigenvalue-minimisations  :     0
 total energy-change (2. order) :-0.3160568E+02  (-0.2735224E+01)
 number of electron     156.0000012 magnetization      24.9087332
 augmentation part       84.3107661 magnetization      18.4101058

 Free energy of the ion-electron system (eV)
  ---------------------------------------------------
  alpha Z        PSCENC =      1044.11122432
  Ewald energy   TEWEN  =    -17829.51883959
  -Hartree energ DENC   =     -5602.65048371
  -exchange      EXHF   =         0.00000000
  -V(xc)+E(xc)   XCENC  =       634.98344368
  PAW double counting   =     21701.98173325   -22480.08129851
  entropy T*S    EENTRO =         0.01261114
  eigenvalues    EBANDS =     -1859.88520121
  atomic energy  EATOM  =     24304.10294433
  ---------------------------------------------------
  free energy    TOTEN  =       -86.93954880 eV

  energy without entropy =      -86.95215994  energy(sigma->0) =      -86.94375251


--------------------------------------------------------------------------------------------------------




--------------------------------------- Iteration      1(   8)  ---------------------------------------


    POTLOK:  cpu time      0.0235: real time      0.0237
    SETDIJ:  cpu time      0.0077: real time      0.0077
    TRIAL :  cpu time      2.9974: real time      3.0277
    CORREC:  cpu time      1.1398: real time      1.1514
    CHARGE:  cpu time      0.1760: real time      0.1769
    --------------------------------------------
      LOOP:  cpu time      4.3626: real time      4.4103

 eigenvalue-minimisations  :     0
 total energy-change (2. order) :-0.2725696E+01  (-0.1107460E+01)
 number of electron     156.0000012 magnetization      25.0774775
 augmentation part       84.5743194 magnetization      18.6099389

 Free energy of the ion-electron system (eV)
  ---------------------------------------------------
  alpha Z        PSCENC =      1044.11122432
  Ewald energy   TEWEN  =    -17829.51883959
  -Hartree energ DENC   =     -5688.43381427
  -exchange      EXHF   =         0.00000000
  -V(xc)+E(xc)   XCENC  =       638.89581056
  PAW double counting   =     21895.77497534   -22673.74233101
  entropy T*S    EENTRO =         0.00947517
  eigenvalues    EBANDS =     -1780.86782576
  atomic energy  EATOM  =     24304.10294433
  ---------------------------------------------------
  free energy    TOTEN  =       -89.66524494 eV

  energy without entropy =      -89.67472010  energy(sigma->0) =      -89.66840333


--------------------------------------------------------------------------------------------------------




--------------------------------------- Iteration      1(   9)  ---------------------------------------


    POTLOK:  cpu time      0.0233: real time      0.0235
    SETDIJ:  cpu time      0.0080: real time      0.0080
    TRIAL :  cpu time      2.9477: real time      2.9793
    CORREC:  cpu time      1.1342: real time      1.1457
    CHARGE:  cpu time      0.1743: real time      0.1753
    --------------------------------------------
      LOOP:  cpu time      4.3042: real time      4.3547

 eigenvalue-minimisations  :     0
 total energy-change (2. order) :-0.1586991E+01  (-0.4081082E+00)
 number of electron     156.0000012 magnetization      25.1441151
 augmentation part       84.6355166 magnetization      18.6804852

 Free energy of the ion-electron system (eV)
  ---------------------------------------------------
  alpha Z        PSCENC =      1044.11122432
  Ewald energy   TEWEN  =    -17829.51883959
  -Hartree energ DENC   =     -5721.84234784
  -exchange      EXHF   =         0.00000000
  -V(xc)+E(xc)   XCENC  =       640.49031204
  PAW double counting   =     21985.22791772   -22761.96472362
  entropy T*S    EENTRO =         0.00852302
  eigenvalues    EBANDS =     -1751.86819864
  atomic energy  EATOM  =     24304.10294433
  ---------------------------------------------------
  free energy    TOTEN  =       -91.25223611 eV

  energy without entropy =      -91.26075914  energy(sigma->0) =      -91.25507712


--------------------------------------------------------------------------------------------------------




--------------------------------------- Iteration      1(  10)  ---------------------------------------


    POTLOK:  cpu time      0.0231: real time      0.0233
    SETDIJ:  cpu time      0.0075: real time      0.0076
    TRIAL :  cpu time      2.8932: real time      2.9214
    CORREC:  cpu time      1.1766: real time      1.1880
    CHARGE:  cpu time      0.1753: real time      0.1762
    --------------------------------------------
      LOOP:  cpu time      4.2915: real time      4.3384

 eigenvalue-minimisations  :     0
 total energy-change (2. order) :-0.3729694E+00  (-0.1035526E+01)
 number of electron     156.0000011 magnetization      25.5577966
 augmentation part       84.8415339 magnetization      19.0994911

 Free energy of the ion-electron system (eV)
  ---------------------------------------------------
  alpha Z        PSCENC =      1044.11122432
  Ewald energy   TEWEN  =    -17829.51883959
  -Hartree energ DENC   =     -5728.93847585
  -exchange      EXHF   =         0.00000000
  -V(xc)+E(xc)   XCENC  =       640.85858525
  PAW double counting   =     22001.18556118   -22776.33421674
  entropy T*S    EENTRO =         0.00982359
  eigenvalues    EBANDS =     -1747.10051142
  atomic energy  EATOM  =     24304.10294433
  ---------------------------------------------------
  free energy    TOTEN  =       -91.62520551 eV

  energy without entropy =      -91.63502909  energy(sigma->0) =      -91.62848004


--------------------------------------------------------------------------------------------------------




--------------------------------------- Iteration      1(  11)  ---------------------------------------


    POTLOK:  cpu time      0.0234: real time      0.0235
    SETDIJ:  cpu time      0.0079: real time      0.0080
    TRIAL :  cpu time      2.9514: real time      2.9793
    CORREC:  cpu time      1.1370: real time      1.1488
    CHARGE:  cpu time      0.1747: real time      0.1758
    --------------------------------------------
      LOOP:  cpu time      4.3121: real time      4.3578

 eigenvalue-minimisations  :     0
 total energy-change (2. order) :-0.1037339E+01  (-0.1734671E+00)
 number of electron     156.0000011 magnetization      25.5972296
 augmentation part       84.8967814 magnetization      19.1539555

 Free energy of the ion-electron system (eV)
  ---------------------------------------------------
  alpha Z        PSCENC =      1044.11122432
  Ewald energy   TEWEN  =    -17829.51883959
  -Hartree energ DENC   =     -5749.47734193
  -exchange      EXHF   =         0.00000000
  -V(xc)+E(xc)   XCENC  =       642.08545004
  PAW double counting   =     21998.37532853   -22756.75582623
  entropy T*S    EENTRO =         0.01345424
  eigenvalues    EBANDS =     -1745.59530732
  atomic energy  EATOM  =     24304.10294433
  ---------------------------------------------------
  free energy    TOTEN  =       -92.66254427 eV

  energy without entropy =      -92.67599851  energy(sigma->0) =      -92.66702902


--------------------------------------------------------------------------------------------------------




--------------------------------------- Iteration      1(  12)  ---------------------------------------


    POTLOK:  cpu time      0.0233: real time      0.0235
    SETDIJ:  cpu time      0.0080: real time      0.0080
    TRIAL :  cpu time      2.9406: real time      2.9720
    CORREC:  cpu time      1.1390: real time      1.1508
    CHARGE:  cpu time      0.1718: real time      0.1728
    --------------------------------------------
      LOOP:  cpu time      4.2996: real time      4.3491

 eigenvalue-minimisations  :     0
 total energy-change (2. order) :-0.1814076E+00  (-0.3265337E+00)
 number of electron     156.0000011 magnetization      25.6317693
 augmentation part       85.1089044 magnetization      19.2526087

 Free energy of the ion-electron system (eV)
  ---------------------------------------------------
  alpha Z        PSCENC =      1044.11122432
  Ewald energy   TEWEN  =    -17829.51883959
  -Hartree energ DENC   =     -5757.75379033
  -exchange      EXHF   =         0.00000000
  -V(xc)+E(xc)   XCENC  =       642.44455743
  PAW double counting   =     22002.55767351   -22759.51834495
  entropy T*S    EENTRO =         0.01306135
  eigenvalues    EBANDS =     -1739.28283079
  atomic energy  EATOM  =     24304.10294433
  ---------------------------------------------------
  free energy    TOTEN  =       -92.84395184 eV

  energy without entropy =      -92.85701319  energy(sigma->0) =      -92.84830562


--------------------------------------------------------------------------------------------------------




--------------------------------------- Iteration      1(  13)  ---------------------------------------


    POTLOK:  cpu time      0.0226: real time      0.0227
    SETDIJ:  cpu time      0.0083: real time      0.0083
    TRIAL :  cpu time      2.9346: real time      2.9619
    CORREC:  cpu time      1.2051: real time      1.2172
    CHARGE:  cpu time      0.1702: real time      0.1711
    --------------------------------------------
      LOOP:  cpu time      4.3591: real time      4.4041

 eigenvalue-minimisations  :     0
 total energy-change (2. order) :-0.3266780E+00  (-0.5617857E-01)
 number of electron     156.0000011 magnetization      25.6479082
 augmentation part       85.1342661 magnetization      19.2776568

 Free energy of the ion-electron system (eV)
  ---------------------------------------------------
  alpha Z        PSCENC =      1044.11122432
  Ewald energy   TEWEN  =    -17829.51883959
  -Hartree energ DENC   =     -5796.03039341
  -exchange      EXHF   =         0.00000000
  -V(xc)+E(xc)   XCENC  =       643.90908008
  PAW double counting   =     22024.72400338   -22784.14287951
  entropy T*S    EENTRO =         0.01111391
  eigenvalues    EBANDS =     -1700.33883077
  atomic energy  EATOM  =     24304.10294433
  ---------------------------------------------------
  free energy    TOTEN  =       -93.17062982 eV

  energy without entropy =      -93.18174373  energy(sigma->0) =      -93.17433446


--------------------------------------------------------------------------------------------------------




--------------------------------------- Iteration      1(  14)  ---------------------------------------


    POTLOK:  cpu time      0.0231: real time      0.0233
    SETDIJ:  cpu time      0.0091: real time      0.0092
    TRIAL :  cpu time      2.9703: real time      2.9988
    CORREC:  cpu time      1.1450: real time      1.1570
    CHARGE:  cpu time      0.1704: real time      0.1713
    --------------------------------------------
      LOOP:  cpu time      4.3350: real time      4.3916

 eigenvalue-minimisations  :     0
 total energy-change (2. order) :-0.5456543E-01  (-0.5593472E-01)
 number of electron     156.0000011 magnetization      25.6859269
 augmentation part       85.1290004 magnetization      19.3183595

 Free energy of the ion-electron system (eV)
  ---------------------------------------------------
  alpha Z        PSCENC =      1044.11122432
  Ewald energy   TEWEN  =    -17829.51883959
  -Hartree energ DENC   =     -5800.38066294
  -exchange      EXHF   =         0.00000000
  -V(xc)+E(xc)   XCENC  =       644.08854487
  PAW double counting   =     22019.87920766   -22779.64358402
  entropy T*S    EENTRO =         0.00802882
  eigenvalues    EBANDS =     -1695.87514379
  atomic energy  EATOM  =     24304.10294433
  ---------------------------------------------------
  free energy    TOTEN  =       -93.22519526 eV

  energy without entropy =      -93.23322408  energy(sigma->0) =      -93.22787153


--------------------------------------------------------------------------------------------------------




--------------------------------------- Iteration      1(  15)  ---------------------------------------


    POTLOK:  cpu time      0.0234: real time      0.0236
    SETDIJ:  cpu time      0.0081: real time      0.0081
    TRIAL :  cpu time      2.9163: real time      2.9471
    CORREC:  cpu time      1.1405: real time      1.1525
    CHARGE:  cpu time      0.1690: real time      0.1699
    --------------------------------------------
      LOOP:  cpu time      4.2747: real time      4.3232

 eigenvalue-minimisations  :     0
 total energy-change (2. order) :-0.5514481E-01  (-0.3679031E-01)
 number of electron     156.0000011 magnetization      25.7454199
 augmentation part       85.0785559 magnetization      19.3739691

 Free energy of the ion-electron system (eV)
  ---------------------------------------------------
  alpha Z        PSCENC =      1044.11122432
  Ewald energy   TEWEN  =    -17829.51883959
  -Hartree energ DENC   =     -5798.61302668
  -exchange      EXHF   =         0.00000000
  -V(xc)+E(xc)   XCENC  =       644.06302589
  PAW double counting   =     21997.87190685   -22757.45100197
  entropy T*S    EENTRO =         0.00398272
  eigenvalues    EBANDS =     -1697.85460203
  atomic energy  EATOM  =     24304.10294433
  ---------------------------------------------------
  free energy    TOTEN  =       -93.28034007 eV

  energy without entropy =      -93.28432279  energy(sigma->0) =      -93.28166764


--------------------------------------------------------------------------------------------------------




--------------------------------------- Iteration      1(  16)  ---------------------------------------


    POTLOK:  cpu time      0.0225: real time      0.0227
    SETDIJ:  cpu time      0.0082: real time      0.0083
    TRIAL :  cpu time      2.9627: real time      2.9939
    CORREC:  cpu time      1.1409: real time      1.1526
    CHARGE:  cpu time      0.1695: real time      0.1706
    --------------------------------------------
      LOOP:  cpu time      4.3226: real time      4.3707

 eigenvalue-minimisations  :     0
 total energy-change (2. order) :-0.3640585E-01  (-0.2115621E-01)
 number of electron     156.0000011 magnetization      25.7836289
 augmentation part       85.0484967 magnetization      19.4139288

 Free energy of the ion-electron system (eV)
  ---------------------------------------------------
  alpha Z        PSCENC =      1044.11122432
  Ewald energy   TEWEN  =    -17829.51883959
  -Hartree energ DENC   =     -5787.59463437
  -exchange      EXHF   =         0.00000000
  -V(xc)+E(xc)   XCENC  =       643.72806054
  PAW double counting   =     21961.25090783   -22719.78622280
  entropy T*S    EENTRO =         0.00168099
  eigenvalues    EBANDS =     -1709.61416890
  atomic energy  EATOM  =     24304.10294433
  ---------------------------------------------------
  free energy    TOTEN  =       -93.31674592 eV

  energy without entropy =      -93.31842691  energy(sigma->0) =      -93.31730625


--------------------------------------------------------------------------------------------------------




--------------------------------------- Iteration      1(  17)  ---------------------------------------


    POTLOK:  cpu time      0.0234: real time      0.0236
    SETDIJ:  cpu time      0.0075: real time      0.0075
    TRIAL :  cpu time      3.0494: real time      3.0829
    CORREC:  cpu time      1.1497: real time      1.1631
    CHARGE:  cpu time      0.1696: real time      0.1704
    --------------------------------------------
      LOOP:  cpu time      4.4175: real time      4.4706

 eigenvalue-minimisations  :     0
 total energy-change (2. order) :-0.2093764E-01  (-0.1329861E-01)
 number of electron     156.0000011 magnetization      25.8234985
[...]
     66       8.8811      1.03419
     67       9.0995      0.68905
     68       9.1065      0.66165
     69       9.1083      0.65434
     70       9.3261     -0.01194
     71       9.3263     -0.01202
     72       9.3560     -0.02978
     73       9.3562     -0.02981
     74       9.5715     -0.00515
     75       9.5717     -0.00511
     76      10.3168     -0.00000
     77      10.3171     -0.00000
     78      10.4216     -0.00000
     79      10.4218     -0.00000
     80      10.4420     -0.00000
     81      10.4428     -0.00000
     82      10.6497     -0.00000
     83      10.6503     -0.00000
     84      10.8611     -0.00000
     85      10.8983     -0.00000
     86      10.9972     -0.00000
     87      11.0103     -0.00000
     88      11.0626     -0.00000
     89      11.1309     -0.00000
     90      11.1743     -0.00000
     91      11.1805     -0.00000
     92      11.5571     -0.00000
     93      11.5577     -0.00000
     94      11.9374     -0.00000
     95      11.9380     -0.00000
     96      11.9913     -0.00000
     97      11.9914     -0.00000
     98      12.4255     -0.00000
     99      12.4258     -0.00000
    100      14.6548      0.00000
    101      16.4125      0.00000
    102      16.4800      0.00000
    103      16.5234      0.00000
    104      17.4035      0.00000
    105      17.4044      0.00000
    106      18.0627      0.00000
    107      18.0629      0.00000
    108      18.6084      0.00000
    109      18.6085      0.00000
    110      19.0967      0.00000
    111      19.0970      0.00000
    112      23.4113      0.00000
    113      23.4121      0.00000
    114      23.9233      0.00000
    115      23.9235      0.00000
    116      24.2262      0.00000
    117      24.2269      0.00000
    118      25.0565      0.00000
    119      25.0570      0.00000
    120      26.4377      0.00000
    121      26.4437      0.00000
    122      26.4955      0.00000
    123      26.8343      0.00000
    124      27.6452      0.00000
    125      27.6453      0.00000
    126      28.0791      0.00000
    127      28.0814      0.00000
    128      28.6375      0.00000


--------------------------------------------------------------------------------------------------------


 soft charge-density along one line, spin component           1
         0         1         2         3         4         5         6         7         8         9
 total charge-density along one line
 
 soft charge-density along one line, spin component           2
         0         1         2         3         4         5         6         7         8         9
 total charge-density along one line
 
 pseudopotential strength for first ion, spin component:           1
-45.629  -0.000  -0.000   7.884   0.000   0.000   0.000   0.000
 -0.000 -45.629   0.000   0.000   7.884  -0.000   0.000  -0.000
 -0.000   0.000 -45.518   0.000  -0.000   7.838  -0.000   0.000
  7.884   0.000   0.000   5.571   0.000   0.000  -0.000  -0.000
  0.000   7.884  -0.000   0.000   5.571  -0.000  -0.000   0.000
  0.000  -0.000   7.838   0.000  -0.000   5.580   0.000  -0.000
  0.000   0.000  -0.000  -0.000  -0.000   0.000  -2.583   0.000
  0.000  -0.000   0.000  -0.000   0.000  -0.000   0.000  -2.661
  0.000  -0.000  -0.000  -0.000  -0.000   0.000   0.000  -0.000
  0.000   0.000   0.000  -0.000  -0.000  -0.000  -0.000   0.000
  0.000  -0.000   0.000  -0.000   0.000  -0.000  -0.000   0.000
  0.000   0.000  -0.000  -0.000  -0.000   0.000  -3.088   0.000
  0.000  -0.000   0.000  -0.000   0.000  -0.000   0.000  -3.165
  0.000  -0.000  -0.000  -0.000  -0.000   0.000   0.000  -0.000
  0.000   0.000   0.000  -0.000  -0.000  -0.000  -0.000   0.000
  0.000  -0.000   0.000  -0.000   0.000  -0.000  -0.000   0.000
  0.000  -0.000  -0.000   0.000   0.000  -0.000   0.000   0.000
  0.000  -0.000  -0.000   0.000   0.000  -0.000   0.000   0.000
 pseudopotential strength for first ion, spin component:           2
-43.201  -0.000  -0.000   6.863   0.000   0.000   0.000   0.000
 -0.000 -43.201   0.000   0.000   6.863  -0.000  -0.000  -0.000
 -0.000   0.000 -43.163   0.000  -0.000   6.847  -0.000  -0.000
  6.863   0.000   0.000   5.860   0.000   0.000  -0.000   0.000
  0.000   6.863  -0.000   0.000   5.860  -0.000   0.000   0.000
  0.000  -0.000   6.847   0.000  -0.000   5.864   0.000   0.000
  0.000  -0.000  -0.000  -0.000   0.000   0.000  -0.660   0.000
  0.000  -0.000  -0.000   0.000   0.000   0.000   0.000  -0.679
  0.000  -0.000  -0.000  -0.000  -0.000   0.000   0.000  -0.000
 -0.000   0.000  -0.000   0.000  -0.000   0.000  -0.000   0.000
  0.000  -0.000   0.000  -0.000   0.000  -0.000  -0.000   0.000
  0.000  -0.000  -0.000  -0.000   0.000   0.000  -1.197   0.000
  0.000  -0.000  -0.000   0.000   0.000   0.000   0.000  -1.216
  0.000  -0.000  -0.000  -0.000  -0.000   0.000   0.000  -0.000
 -0.000   0.000  -0.000   0.000  -0.000   0.000  -0.000   0.000
  0.000  -0.000   0.000  -0.000   0.000  -0.000  -0.000   0.000
  0.000   0.000  -0.000   0.000  -0.000  -0.000   0.000   0.000
  0.000  -0.000  -0.000   0.000   0.000  -0.000   0.000   0.000
 total augmentation occupancy for first ion, spin component:           1
  1.992  -0.000   0.000  -0.027   0.000   0.000  -0.000   0.000  -0.000   0.000   0.000   0.000  -0.000  -0.000   0.000  -0.000
 -0.000   1.992  -0.000   0.000  -0.027   0.000   0.000  -0.000   0.000  -0.000  -0.000   0.000  -0.000  -0.000   0.000   0.000
  0.000  -0.000   1.992  -0.000   0.000  -0.027   0.000  -0.000   0.000   0.000   0.000   0.000   0.000   0.000  -0.000   0.000
 -0.027   0.000  -0.000   0.169   0.000   0.000  -0.000   0.000  -0.000   0.000   0.000   0.000  -0.000  -0.000  -0.000  -0.000
  0.000  -0.027   0.000   0.000   0.169  -0.000   0.000  -0.000   0.000  -0.000  -0.000   0.000   0.000  -0.000   0.000   0.000
  0.000   0.000  -0.027   0.000  -0.000   0.150   0.000   0.000   0.000   0.000  -0.000   0.000  -0.000  -0.000  -0.000   0.000
 -0.000   0.000   0.000  -0.000   0.000   0.000   2.985  -0.000   0.000  -0.000   0.000  -1.602   0.000  -0.000   0.000  -0.000
  0.000  -0.000  -0.000   0.000  -0.000   0.000  -0.000   3.289   0.000   0.000   0.000   0.000  -2.111   0.000  -0.000   0.000
 -0.000   0.000   0.000  -0.000   0.000   0.000   0.000   0.000   3.384  -0.000   0.174   0.000   0.000  -1.907  -0.000  -0.099
  0.000  -0.000   0.000   0.000  -0.000   0.000  -0.000   0.000  -0.000   2.989  -0.000   0.000   0.000   0.000  -1.606   0.000
  0.000  -0.000   0.000   0.000  -0.000  -0.000   0.000   0.000   0.174  -0.000   3.183   0.000  -0.000  -0.099  -0.000  -1.793
  0.000   0.000   0.000   0.000   0.000   0.000  -1.602   0.000   0.000   0.000   0.000   1.625  -0.000  -0.000  -0.000  -0.000
 -0.000  -0.000   0.000  -0.000   0.000  -0.000   0.000  -2.111   0.000   0.000  -0.000  -0.000   2.250   0.000  -0.000  -0.000
 -0.000  -0.000   0.000  -0.000  -0.000  -0.000  -0.000   0.000  -1.907   0.000  -0.099  -0.000   0.000   1.690  -0.000   0.022
  0.000   0.000  -0.000  -0.000   0.000  -0.000   0.000  -0.000  -0.000  -1.606  -0.000  -0.000  -0.000  -0.000   1.627   0.000
 -0.000   0.000   0.000  -0.000   0.000   0.000  -0.000   0.000  -0.099   0.000  -1.793  -0.000  -0.000   0.022   0.000   1.664
  0.000  -0.000   0.000   0.000  -0.000   0.000  -0.000   0.000  -0.099   0.000   0.171  -0.000   0.000   0.069  -0.000  -0.120
 -0.000   0.000  -0.000   0.000   0.000  -0.000   0.000   0.000   0.006   0.000  -0.011   0.000  -0.000  -0.004   0.000   0.007
 total augmentation occupancy for first ion, spin component:           2
 -0.002   0.000   0.000  -0.009   0.000   0.000   0.000  -0.000  -0.000   0.000   0.000   0.000   0.000  -0.000   0.000   0.000
  0.000  -0.002   0.000   0.000  -0.009  -0.000   0.000   0.000   0.000   0.000  -0.000   0.000  -0.000  -0.000   0.000   0.000
  0.000   0.000  -0.002  -0.000   0.000  -0.010   0.000   0.000  -0.000  -0.000   0.000   0.000   0.000  -0.000   0.000   0.000
 -0.009   0.000  -0.000  -0.005   0.000   0.000   0.000   0.000  -0.000  -0.000   0.000  -0.000  -0.000   0.000   0.000   0.000
  0.000  -0.009   0.000   0.000  -0.005   0.000   0.000  -0.000   0.000   0.000   0.000   0.000   0.000  -0.000  -0.000  -0.000
  0.000  -0.000  -0.010   0.000   0.000  -0.012   0.000  -0.000   0.000   0.000   0.000   0.000   0.000  -0.000  -0.000  -0.000
  0.000   0.000   0.000   0.000   0.000   0.000   2.486   0.000   0.000  -0.000  -0.000  -1.091   0.000   0.000   0.000   0.000
 -0.000   0.000   0.000   0.000  -0.000  -0.000   0.000   2.536  -0.000   0.000   0.000  -0.000  -1.043   0.000   0.000  -0.000
 -0.000   0.000  -0.000  -0.000   0.000   0.000   0.000  -0.000   2.823   0.000   0.104   0.000   0.000  -1.205   0.000  -0.096
  0.000   0.000  -0.000  -0.000   0.000   0.000  -0.000   0.000   0.000   2.490  -0.000   0.000   0.000   0.000  -1.093   0.000
  0.000  -0.000   0.000   0.000   0.000   0.000  -0.000   0.000   0.104  -0.000   2.703   0.000   0.000  -0.096   0.000  -1.094
  0.000   0.000   0.000  -0.000   0.000   0.000  -1.091  -0.000   0.000   0.000   0.000   0.281   0.000   0.000  -0.000   0.000
  0.000  -0.000   0.000  -0.000   0.000   0.000   0.000  -1.043   0.000   0.000   0.000   0.000   0.183  -0.000   0.000  -0.000
 -0.000  -0.000  -0.000   0.000  -0.000  -0.000   0.000   0.000  -1.205   0.000  -0.096   0.000  -0.000   0.384  -0.000   0.110
  0.000   0.000   0.000   0.000  -0.000  -0.000   0.000   0.000   0.000  -1.093   0.000  -0.000   0.000  -0.000   0.282  -0.000
  0.000   0.000   0.000   0.000  -0.000  -0.000   0.000  -0.000  -0.096   0.000  -1.094   0.000  -0.000   0.110  -0.000   0.257
  0.000  -0.000   0.000   0.000  -0.000  -0.000   0.000   0.000  -0.035  -0.000   0.060   0.000   0.000   0.034  -0.000  -0.060
  0.000   0.000   0.000  -0.000  -0.000   0.000   0.000   0.000   0.003  -0.000  -0.005   0.000   0.000  -0.000  -0.000   0.001


------------------------ aborting loop because EDIFF is reached ----------------------------------------





 total charge

# of ion       s       p       d       tot
------------------------------------------
    1        0.335   6.301   5.995  12.632
    2        0.335   6.301   5.995  12.632
    3        0.335   6.301   5.995  12.632
    4        0.336   6.301   5.995  12.632
    5        0.335   6.301   5.995  12.632
    6        0.335   6.301   5.995  12.632
    7        0.335   6.301   5.995  12.632
    8        0.335   6.301   5.995  12.632
    9        0.335   6.301   5.995  12.632
   10        0.739   0.649   8.023   9.411
   11        0.739   0.649   8.023   9.411
   12        0.739   0.649   8.023   9.411
--------------------------------------------------
tot          5.235  58.659  78.026 141.919



 magnetization (x)

# of ion       s       p       d       tot
------------------------------------------
    1       -0.001  -0.017   2.830   2.812
    2       -0.001  -0.017   2.830   2.813
    3       -0.001  -0.017   2.830   2.812
    4       -0.001  -0.017   2.830   2.813
    5       -0.001  -0.017   2.832   2.814
    6       -0.001  -0.017   2.832   2.814
    7       -0.001  -0.017   2.830   2.812
    8       -0.001  -0.017   2.830   2.813
    9       -0.001  -0.017   2.830   2.812
   10       -0.042  -0.099   0.448   0.307
   11       -0.042  -0.099   0.448   0.307
   12       -0.042  -0.099   0.448   0.307
--------------------------------------------------
tot         -0.133  -0.446  26.818  26.238
 
    FORLOC:  cpu time      0.0009: real time      0.0010
    FORNL :  cpu time      0.7552: real time      0.7592
    STRESS:  cpu time      4.5538: real time      4.5879
    FORCOR:  cpu time      0.0213: real time      0.0214
    OFIELD:  cpu time      0.0002: real time      0.0002

  FORCE on cell =-STRESS in cart. coord.  units (eV):
  Direction    XX          YY          ZZ          XY          YZ          ZX
  --------------------------------------------------------------------------------------
  Alpha Z  1044.11122  1044.11122  1044.11122
  Ewald   -5942.81180 -5942.81180 -5943.91796     0.00000     0.00000    -0.00000
  Hartree  1926.84643  1926.84643  1926.19730    -0.00000    -0.00000    -0.00000
  E(xc)    -943.35528  -943.35528  -943.35475    -0.00000    -0.00000    -0.00000
  Local    1004.59520  1004.59520  1006.24145     0.00000    -0.00000     0.00000
  n-local  -221.72636  -236.71540  -229.16104    14.02059    -0.15866     0.16166
  augment  1440.25481  1440.25481  1440.26289     0.00000     0.00000     0.00000
  Kinetic  1695.32021  1690.08383  1692.77805     1.64319     0.23493     1.21004
  Fock        0.00000     0.00000     0.00000     0.00000     0.00000     0.00000
  -------------------------------------------------------------------------------------
  Total      -6.87827    -6.87827    -6.84283     0.00000     0.00000    -0.00000
  in kB     -67.60866   -67.60866   -67.26027     0.00000     0.00000    -0.00000
  external pressure =      -67.49 kB  Pullay stress =        0.00 kB


 VOLUME and BASIS-vectors are now :
 -----------------------------------------------------------------------------
  energy-cutoff  :      520.00
  volume of cell :      163.00
      direct lattice vectors                 reciprocal lattice vectors
     3.786238269  0.000000000  0.000000000     0.264114387  0.000000000  0.000000000
     0.000000000  3.786238269  0.000000000    -0.000000000  0.264114387  0.000000000
    -0.000000000 -0.000000000 11.370294749    -0.000000000  0.000000000  0.087948468

  length of vectors
     3.786238269  3.786238269 11.370294749     0.264114387  0.264114387  0.087948468


 FORCES acting on ions:
    Electron-Ion                     Ewald-Force                    Non-Local-Force
 -----------------------------------------------------------------------------------------------
   0.210E-11 0.101E-10 -.121E+01   0.277E-13 0.186E-13 0.121E+01   0.371E-21 -.179E-20 0.276E-02
   0.201E-13 0.110E-11 0.333E-12   0.405E-13 -.364E-14 0.227E-12   0.221E-25 -.403E-24 -.106E-23
   0.112E-13 -.402E-12 0.121E+01   0.486E-13 0.101E-13 -.121E+01   -.135E-21 0.188E-20 -.276E-02
   0.108E-11 0.797E-11 0.501E-11   0.436E-13 -.194E-15 0.114E-12   0.521E-25 0.928E-25 -.108E-23
   0.107E-11 -.435E-11 -.867E+00   0.491E-13 0.239E-13 0.868E+00   -.144E-21 0.128E-22 -.161E-02
   0.111E-11 -.465E-11 0.867E+00   -.568E-13 -.593E-13 -.868E+00   0.420E-22 0.936E-22 0.161E-02
   0.105E-11 -.369E-13 -.121E+01   -.109E-13 -.187E-13 0.121E+01   -.579E-22 -.139E-20 0.276E-02
   0.108E-11 -.349E-13 0.319E-11   -.319E-13 -.153E-13 0.512E-12   0.572E-24 -.164E-25 0.103E-25
   0.111E-11 -.324E-13 0.121E+01   -.638E-13 0.674E-14 -.121E+01   -.372E-21 0.715E-21 -.276E-02
   0.680E-15 -.412E-13 -.800E-13   -.383E-13 0.655E-15 0.000E+00   -.210E-24 0.157E-24 0.450E-23
   0.235E-12 -.406E-13 -.641E+00   -.697E-13 -.228E-13 0.641E+00   -.326E-21 0.175E-21 0.635E-02
   -.886E-14 -.417E-13 0.641E+00   0.925E-13 0.296E-13 -.641E+00   -.893E-21 0.195E-21 -.635E-02
 -----------------------------------------------------------------------------------------------
   0.892E-11 0.966E-11 0.235E-10   0.305E-13 -.304E-13 0.226E-12   -.151E-20 -.113E-21 0.867E-18
 
 
 POSITION                                       TOTAL-FORCE (eV/Angst)
 -----------------------------------------------------------------------------------
      3.78624      1.89312      1.89450        -0.000000     -0.000000      0.000014
     -0.00000      1.89312      5.68515         0.000000     -0.000000     -0.000000
     -0.00000      1.89312      9.47579         0.000000      0.000000     -0.000014
      1.89312      1.89312      0.00000         0.000000      0.000000     -0.000000
      1.89312      1.89312      3.78975         0.000000      0.000000     -0.000609
      1.89312      1.89312      7.58055        -0.000000     -0.000000      0.000609
      1.89312     -0.00000      1.89450        -0.000000     -0.000000      0.000014
      1.89312     -0.00000      5.68515        -0.000000     -0.000000     -0.000000
      1.89312     -0.00000      9.47579         0.000000      0.000000     -0.000014
      0.00000     -0.00000      0.00000         0.000000     -0.000000     -0.000000
      3.78624     -0.00000      3.78968        -0.000000     -0.000000      0.005929
     -0.00000     -0.00000      7.58062         0.000000      0.000000     -0.005929
 -----------------------------------------------------------------------------------
    total drift:                                0.000000      0.000000      0.000000


--------------------------------------------------------------------------------------------------------



  FREE ENERGIE OF THE ION-ELECTRON SYSTEM (eV)
  ---------------------------------------------------
  free  energy   TOTEN  =       -93.38544451 eV

  energy  without entropy=      -93.37908177  energy(sigma->0) =      -93.38332360
 
 d Force = 0.1197584E-05[-0.638E-06, 0.303E-05]  d Energy =-0.1032746E-05 0.223E-05
 d Force =-0.7251622E-03[-0.813E-03,-0.638E-03]  d Ewald  =-0.7021143E-03-0.230E-04


--------------------------------------------------------------------------------------------------------


    POTLOK:  cpu time      0.0314: real time      0.0316


--------------------------------------------------------------------------------------------------------




--------------------------------------------------------------------------------------------------------


  
 reached required accuracy - stopping structural energy minimisation
     LOOP+:  cpu time     41.1867: real time     41.6162
    4ORBIT:  cpu time      0.0000: real time      0.0000



 total charge

# of ion       s       p       d       tot
------------------------------------------
    1        0.335   6.301   5.995  12.632
    2        0.335   6.301   5.995  12.632
    3        0.335   6.301   5.995  12.632
    4        0.336   6.301   5.995  12.632
    5        0.335   6.301   5.995  12.632
    6        0.335   6.301   5.995  12.632
    7        0.335   6.301   5.995  12.632
    8        0.335   6.301   5.995  12.632
    9        0.335   6.301   5.995  12.632
   10        0.739   0.649   8.023   9.411
   11        0.739   0.649   8.023   9.411
   12        0.739   0.649   8.023   9.411
--------------------------------------------------
tot          5.235  58.659  78.026 141.919



 magnetization (x)

# of ion       s       p       d       tot
------------------------------------------
    1       -0.001  -0.017   2.830   2.812
    2       -0.001  -0.017   2.830   2.813
    3       -0.001  -0.017   2.830   2.812
    4       -0.001  -0.017   2.830   2.813
    5       -0.001  -0.017   2.832   2.814
    6       -0.001  -0.017   2.832   2.814
    7       -0.001  -0.017   2.830   2.812
    8       -0.001  -0.017   2.830   2.813
    9       -0.001  -0.017   2.830   2.812
   10       -0.042  -0.099   0.448   0.307
   11       -0.042  -0.099   0.448   0.307
   12       -0.042  -0.099   0.448   0.307
--------------------------------------------------
tot         -0.133  -0.446  26.818  26.238
 

 total amount of memory used by VASP MPI-rank0   295971. kBytes
=======================================================================

   base      :      30000. kBytes
   nonl-proj :     107679. kBytes
   fftplans  :        955. kBytes
   grid      :       7297. kBytes
   one-center:        373. kBytes
   wavefun   :     149667. kBytes
 
  
  
 General timing and accounting informations for this job:
 ========================================================
  
                  Total CPU time used (sec):      322.854
                            User time (sec):      316.112
                          System time (sec):        6.743
                         Elapsed time (sec):      332.061
  
                   Maximum memory used (kb):     1173556.
                   Average memory used (kb):          N/A
  
                          Minor page faults:       206282
                          Major page faults:          113
                 Voluntary context switches:         8948
