       N       E                     dE             d eps       ncg     rms          ort
DAV:   1     0.176746089952E+04    0.17675E+04   -0.91425E+04 10752   0.202E+03
DAV:   2     0.691180385177E+01   -0.17605E+04   -0.16680E+04 10752   0.484E+02
DAV:   3    -0.102318607903E+03   -0.10923E+03   -0.10768E+03 10752   0.128E+02
DAV:   4    -0.103842596482E+03   -0.15240E+01   -0.15236E+01 10752   0.153E+01
DAV:   5    -0.103870042180E+03   -0.27446E-01   -0.27445E-01 10752   0.200E+00
SDA:   6    -0.599592984480E+02    0.43911E+02   -0.27445E-01 10752   0.206E+03 0.000E+00
CGA:   7    -0.868626277835E+02   -0.26903E+02   -0.26611E+02 10752   0.161E+02-0.399E+00
CGA:   8    -0.902134529722E+02   -0.33508E+01   -0.33518E+01 10752   0.468E+02-0.542E-01
CGA:   9    -0.912499772762E+02   -0.10365E+01   -0.81862E+00 10752   0.531E+01 0.128E+02
CGA:  10    -0.914149633389E+02   -0.16499E+00   -0.17822E+00 10752   0.519E+01-0.456E+00
CGA:  11    -0.920480770893E+02   -0.63311E+00   -0.63088E+00 10752   0.240E+02 0.138E-01
CGA:  12    -0.924217109063E+02   -0.37363E+00   -0.24131E+00 10752   0.117E+02 0.141E+02
CGA:  13    -0.926474247544E+02   -0.22571E+00   -0.22535E+00 10752   0.743E+00 0.543E-02
CGA:  14    -0.927818953522E+02   -0.13447E+00   -0.13441E+00 10752   0.614E+00 0.216E-02
CGA:  15    -0.928522348367E+02   -0.70339E-01   -0.70674E-01 10752   0.354E+00 0.537E-03
CGA:  16    -0.928969886551E+02   -0.44754E-01   -0.45030E-01 10752   0.793E+00 0.199E-02
CGA:  17    -0.929266014609E+02   -0.29613E-01   -0.31280E-01 10752   0.175E+00-0.348E-01
CGA:  18    -0.929490543942E+02   -0.22453E-01   -0.22507E-01 10752   0.214E+00 0.133E-02
CGA:  19    -0.929673095958E+02   -0.18255E-01   -0.18590E-01 10752   0.237E+00-0.657E-03
CGA:  20    -0.929761961227E+02   -0.88865E-02   -0.94429E-02 10752   0.349E-01-0.102E-01
CGA:  21    -0.929849497013E+02   -0.87536E-02   -0.86323E-02 10752   0.172E+00 0.972E-03
CGA:  22    -0.929937194406E+02   -0.87697E-02   -0.90898E-02 10752   0.336E-01-0.394E-02
CGA:  23    -0.929966707541E+02   -0.29513E-02   -0.29586E-02 10752   0.529E-01-0.147E-03
CGA:  24    -0.930015500398E+02   -0.48793E-02   -0.48996E-02 10752   0.441E-01-0.357E-03
CGA:  25    -0.930045328867E+02   -0.29828E-02   -0.29901E-02 10752   0.163E-01-0.453E-03
CGA:  26    -0.930051935464E+02   -0.66066E-03   -0.65664E-03 10752   0.419E-02-0.119E-03
CGA:  27    -0.930057083639E+02   -0.51482E-03   -0.51435E-03 10752   0.672E-02-0.686E-04
CGA:  28    -0.930060825715E+02   -0.37421E-03   -0.37083E-03 10752   0.229E-02-0.599E-04
CGA:  29    -0.930062421536E+02   -0.15958E-03   -0.15841E-03 10752   0.122E-02-0.221E-04
CGA:  30    -0.930063225430E+02   -0.80389E-04   -0.79923E-04 10752   0.116E-02-0.704E-05
CGA:  31    -0.930064598683E+02   -0.13733E-03   -0.13732E-03 10752   0.946E-03-0.631E-05
CGA:  32    -0.930065152987E+02   -0.55430E-04   -0.55565E-04 10752   0.801E-03 0.222E-05
CGA:  33    -0.930066146714E+02   -0.99373E-04   -0.99290E-04 10752   0.498E-03 0.133E-04
CGA:  34    -0.930066361519E+02   -0.21480E-04   -0.21742E-04 10752   0.198E-03 0.374E-05
CGA:  35    -0.930066616489E+02   -0.25497E-04   -0.25439E-04 10752   0.256E-03 0.468E-05
CGA:  36    -0.930066766549E+02   -0.15006E-04   -0.15139E-04 10752   0.104E-03 0.256E-05
CGA:  37    -0.930066820454E+02   -0.53905E-05   -0.54432E-05 10752   0.227E-04 0.100E-05
CGA:  38    -0.930066835978E+02   -0.15524E-05   -0.15682E-05 10752   0.247E-04 0.623E-06
CGA:  39    -0.930066861682E+02   -0.25704E-05   -0.25764E-05 10752   0.114E-04 0.141E-05
CGA:  40    -0.930066866724E+02   -0.50424E-06   -0.54866E-06 10752   0.469E-05 0.862E-06
   1 F= -.93006687E+02 E0= -.93013640E+02  d E =-.930067E+02  mag=    23.8868
