       N       E                     dE             d eps       ncg     rms          rms(c)
DAV:   1     0.176530969557E+04    0.17653E+04   -0.83806E+04 43104   0.184E+03
DAV:   2     0.679830904423E+01   -0.17585E+04   -0.16659E+04 43008   0.484E+02
DAV:   3    -0.102405819687E+03   -0.10920E+03   -0.10765E+03 51168   0.128E+02
DAV:   4    -0.103930777279E+03   -0.15250E+01   -0.15245E+01 45472   0.153E+01
DAV:   5    -0.103958134595E+03   -0.27357E-01   -0.27357E-01 52864   0.200E+00    0.422E+01
DAV:   6    -0.989374477647E+02    0.50207E+01   -0.59669E+01 48448   0.492E+01    0.312E+01
DAV:   7    -0.964953692621E+02    0.24421E+01   -0.88640E+01 49824   0.413E+01    0.237E+01
DAV:   8    -0.943052286011E+02    0.21901E+01   -0.12711E+01 50144   0.179E+01    0.177E+01
DAV:   9    -0.944052226487E+02   -0.99994E-01   -0.18734E+01 51712   0.181E+01    0.204E+01
DAV:  10    -0.940865422028E+02    0.31868E+00   -0.24264E+01 52512   0.141E+01    0.184E+01
DAV:  11    -0.928929564938E+02    0.11936E+01   -0.11411E+01 52800   0.113E+01    0.698E+00
DAV:  12    -0.929242028634E+02   -0.31246E-01   -0.69358E-01 49760   0.460E+00    0.595E+00
DAV:  13    -0.928862642603E+02    0.37939E-01   -0.34553E-01 50080   0.386E+00    0.465E+00
DAV:  14    -0.929265513121E+02   -0.40287E-01   -0.12052E-01 51456   0.228E+00    0.358E+00
DAV:  15    -0.929634707538E+02   -0.36919E-01   -0.84743E-02 51712   0.194E+00    0.186E+00
DAV:  16    -0.930076163954E+02   -0.44146E-01   -0.50665E-02 50176   0.164E+00    0.145E+00
DAV:  17    -0.930100375429E+02   -0.24211E-02   -0.18879E-02 50464   0.107E+00    0.633E-01
DAV:  18    -0.930114815021E+02   -0.14440E-02   -0.20716E-03 50752   0.322E-01    0.334E-01
DAV:  19    -0.930117976148E+02   -0.31611E-03   -0.73540E-04 50880   0.174E-01    0.173E-01
DAV:  20    -0.930118413673E+02   -0.43752E-04   -0.86408E-04 52960   0.180E-01    0.109E-01
DAV:  21    -0.930118852315E+02   -0.43864E-04   -0.22698E-04 49760   0.984E-02    0.514E-02
DAV:  22    -0.930118770915E+02    0.81400E-05   -0.27139E-05 57216   0.291E-02    0.337E-02
DAV:  23    -0.930118645436E+02    0.12548E-04   -0.90015E-06 50336   0.204E-02    0.192E-02
DAV:  24    -0.930118626967E+02    0.18469E-05   -0.29821E-06 36800   0.119E-02    0.985E-03
DAV:  25    -0.930118620446E+02    0.65209E-06   -0.14032E-06 30624   0.719E-03
   1 F= -.93011862E+02 E0= -.93011862E+02  d E =0.000000E+00  mag=    23.8856
