       N       E                     dE             d eps       ncg     rms          ort
DAV:   1     0.176545919618E+04    0.17655E+04   -0.91523E+04 10752   0.202E+03
DAV:   2     0.643113723911E+01   -0.17590E+04   -0.16667E+04 10752   0.484E+02
DAV:   3    -0.102424362172E+03   -0.10886E+03   -0.10730E+03 10752   0.128E+02
DAV:   4    -0.103943837726E+03   -0.15195E+01   -0.15191E+01 10752   0.153E+01
DAV:   5    -0.103971136473E+03   -0.27299E-01   -0.27298E-01 10752   0.199E+00
SDA:   6    -0.595975309063E+02    0.44374E+02   -0.27298E-01 10752   0.208E+03 0.000E+00
CGA:   7    -0.867648065150E+02   -0.27167E+02   -0.26800E+02 10752   0.164E+02-0.487E+00
CGA:   8    -0.900018236431E+02   -0.32370E+01   -0.32372E+01 10752   0.528E+02-0.580E-01
CGA:   9    -0.911830463691E+02   -0.11812E+01   -0.92696E+00 10752   0.598E+01 0.149E+02
CGA:  10    -0.913547430697E+02   -0.17170E+00   -0.18615E+00 10752   0.502E+01-0.548E+00
CGA:  11    -0.920448414986E+02   -0.69010E+00   -0.68859E+00 10752   0.238E+02-0.439E-02
CGA:  12    -0.924021318525E+02   -0.35729E+00   -0.23073E+00 10752   0.109E+02 0.139E+02
CGA:  13    -0.926100358043E+02   -0.20790E+00   -0.20997E+00 10752   0.866E+00-0.115E+00
CGA:  14    -0.927545805686E+02   -0.14454E+00   -0.14450E+00 10752   0.716E+00 0.325E-02
CGA:  15    -0.928084411011E+02   -0.53861E-01   -0.54645E-01 10752   0.857E+00-0.588E-02
CGA:  16    -0.928442413610E+02   -0.35800E-01   -0.37292E-01 10752   0.480E+00-0.277E-01
CGA:  17    -0.929052550620E+02   -0.61014E-01   -0.61180E-01 10752   0.201E+00 0.280E-02
CGA:  18    -0.929216396773E+02   -0.16385E-01   -0.16618E-01 10752   0.346E+00-0.902E-03
CGA:  19    -0.929439100135E+02   -0.22270E-01   -0.23258E-01 10752   0.269E+00-0.740E-02
CGA:  20    -0.929684006405E+02   -0.24491E-01   -0.24902E-01 10752   0.493E-01 0.622E-03
CGA:  21    -0.929718246494E+02   -0.34240E-02   -0.34701E-02 10752   0.970E-01-0.207E-03
CGA:  22    -0.929897872881E+02   -0.17963E-01   -0.17842E-01 10752   0.551E-01 0.196E-02
CGA:  23    -0.929949666388E+02   -0.51794E-02   -0.52210E-02 10752   0.478E-01-0.985E-04
CGA:  24    -0.929979058878E+02   -0.29392E-02   -0.29551E-02 10752   0.534E-01-0.486E-03
CGA:  25    -0.930039072771E+02   -0.60014E-02   -0.59960E-02 10752   0.124E-01-0.475E-03
CGA:  26    -0.930049493079E+02   -0.10420E-02   -0.10379E-02 10752   0.981E-02-0.950E-04
CGA:  27    -0.930054460138E+02   -0.49671E-03   -0.49421E-03 10752   0.581E-02-0.511E-04
CGA:  28    -0.930059254068E+02   -0.47939E-03   -0.47842E-03 10752   0.151E-02-0.295E-04
CGA:  29    -0.930062166803E+02   -0.29127E-03   -0.29211E-03 10752   0.358E-02-0.119E-04
CGA:  30    -0.930063456182E+02   -0.12894E-03   -0.12847E-03 10752   0.509E-03-0.272E-05
CGA:  31    -0.930065443714E+02   -0.19875E-03   -0.19912E-03 10752   0.893E-03-0.128E-05
CGA:  32    -0.930065878852E+02   -0.43514E-04   -0.43711E-04 10752   0.554E-03 0.287E-05
CGA:  33    -0.930066238364E+02   -0.35951E-04   -0.36338E-04 10752   0.255E-03 0.639E-05
CGA:  34    -0.930066703398E+02   -0.46503E-04   -0.45776E-04 10752   0.117E-03 0.152E-04
CGA:  35    -0.930066752087E+02   -0.48689E-05   -0.50079E-05 10752   0.495E-04 0.173E-05
CGA:  36    -0.930066785850E+02   -0.33763E-05   -0.34284E-05 10752   0.275E-04 0.104E-05
CGA:  37    -0.930066841446E+02   -0.55596E-05   -0.54943E-05 10752   0.155E-04 0.101E-05
CGA:  38    -0.930066846861E+02   -0.54151E-06   -0.56457E-06 10752   0.621E-05 0.359E-06
CGA:  39    -0.930066858164E+02   -0.11303E-05   -0.10707E-05 10752   0.282E-05 0.141E-05
CGA:  40    -0.930066861855E+02   -0.36912E-06   -0.37646E-06 10752   0.713E-05 0.560E-06
   1 F= -.93006686E+02 E0= -.93013627E+02  d E =-.930067E+02  mag=    23.8896
       N       E                     dE             d eps       ncg     rms          ort
SDA:   1    -0.930055375058E+02    0.11483E-02    0.00000E+00 10752   0.593E-02 0.000E+00
CGA:   2    -0.930057784664E+02   -0.24096E-03   -0.24089E-03 10752   0.417E-02-0.719E-06
CGA:   3    -0.930063558143E+02   -0.57735E-03   -0.57739E-03 10752   0.224E-02-0.185E-05
CGA:   4    -0.930065750700E+02   -0.21926E-03   -0.21927E-03 10752   0.602E-03 0.518E-07
CGA:   5    -0.930066578091E+02   -0.82739E-04   -0.82731E-04 10752   0.829E-03 0.392E-06
CGA:   6    -0.930066878266E+02   -0.30017E-04   -0.30033E-04 10752   0.161E-03 0.139E-06
CGA:   7    -0.930067002827E+02   -0.12456E-04   -0.12462E-04 10752   0.596E-04 0.132E-06
CGA:   8    -0.930067121201E+02   -0.11837E-04   -0.11806E-04 10752   0.236E-04 0.368E-06
CGA:   9    -0.930067132722E+02   -0.11520E-05   -0.11547E-05 10752   0.220E-04 0.544E-07
CGA:  10    -0.930067160444E+02   -0.27722E-05   -0.27712E-05 10752   0.567E-05 0.119E-06
CGA:  11    -0.930067168013E+02   -0.75696E-06   -0.75743E-06 10752   0.651E-05 0.404E-07
   2 F= -.93006717E+02 E0= -.93013672E+02  d E =-.306159E-04  mag=    23.8858
       N       E                     dE             d eps       ncg     rms          ort
SDA:   1    -0.929958987249E+02    0.10817E-01    0.00000E+00 10752   0.637E-01 0.000E+00
CGA:   2    -0.929981380728E+02   -0.22393E-02   -0.22378E-02 10752   0.327E-01 0.180E-04
CGA:   3    -0.930036813120E+02   -0.55432E-02   -0.55433E-02 10752   0.185E-01-0.381E-05
CGA:   4    -0.930054310739E+02   -0.17498E-02   -0.17500E-02 10752   0.557E-02 0.394E-05
CGA:   5    -0.930060931617E+02   -0.66209E-03   -0.66208E-03 10752   0.842E-02-0.390E-06
CGA:   6    -0.930064221870E+02   -0.32903E-03   -0.32900E-03 10752   0.136E-02 0.105E-05
CGA:   7    -0.930065348265E+02   -0.11264E-03   -0.11264E-03 10752   0.519E-03 0.194E-06
CGA:   8    -0.930066387825E+02   -0.10396E-03   -0.10390E-03 10752   0.286E-03 0.603E-06
CGA:   9    -0.930066494781E+02   -0.10696E-04   -0.10700E-04 10752   0.150E-03 0.329E-07
CGA:  10    -0.930066744322E+02   -0.24954E-04   -0.24948E-04 10752   0.531E-04 0.174E-06
CGA:  11    -0.930066806904E+02   -0.62582E-05   -0.62579E-05 10752   0.674E-04 0.100E-06
CGA:  12    -0.930066841046E+02   -0.34142E-05   -0.34144E-05 10752   0.404E-04 0.380E-07
CGA:  13    -0.930066873887E+02   -0.32841E-05   -0.32835E-05 10752   0.731E-05 0.187E-07
CGA:  14    -0.930066885349E+02   -0.11462E-05   -0.11477E-05 10752   0.109E-04 0.160E-07
CGA:  15    -0.930066891555E+02   -0.62056E-06   -0.62089E-06 10752   0.767E-05 0.376E-07
   3 F= -.93006689E+02 E0= -.93013670E+02  d E =-.297001E-05  mag=    23.8842
       N       E                     dE             d eps       ncg     rms          ort
SDA:   1    -0.930050401347E+02    0.16484E-02    0.00000E+00 10752   0.182E-01 0.000E+00
CGA:   2    -0.930055377401E+02   -0.49761E-03   -0.49779E-03 10752   0.383E-02-0.863E-05
CGA:   3    -0.930061891681E+02   -0.65143E-03   -0.65142E-03 10752   0.338E-02-0.443E-06
CGA:   4    -0.930065497566E+02   -0.36059E-03   -0.36059E-03 10752   0.744E-03-0.180E-06
CGA:   5    -0.930066266270E+02   -0.76870E-04   -0.76870E-04 10752   0.114E-02 0.405E-07
CGA:   6    -0.930066787774E+02   -0.52150E-04   -0.52165E-04 10752   0.282E-03 0.268E-06
CGA:   7    -0.930066995865E+02   -0.20809E-04   -0.20811E-04 10752   0.612E-04 0.238E-07
CGA:   8    -0.930067136784E+02   -0.14092E-04   -0.14134E-04 10752   0.529E-04-0.344E-06
CGA:   9    -0.930067154079E+02   -0.17295E-05   -0.17280E-05 10752   0.180E-04-0.386E-07
CGA:  10    -0.930067187940E+02   -0.33861E-05   -0.33845E-05 10752   0.771E-05 0.134E-07
CGA:  11    -0.930067196411E+02   -0.84715E-06   -0.84701E-06 10752   0.760E-05 0.408E-07
   4 F= -.93006720E+02 E0= -.93013694E+02  d E =-.334557E-04  mag=    23.8841
       N       E                     dE             d eps       ncg     rms          ort
SDA:   1    -0.930055155500E+02    0.12032E-02    0.00000E+00 10752   0.119E-01 0.000E+00
CGA:   2    -0.930058507082E+02   -0.33516E-03   -0.33521E-03 10752   0.286E-02-0.303E-05
CGA:   3    -0.930063173789E+02   -0.46667E-03   -0.46667E-03 10752   0.301E-02-0.595E-06
CGA:   4    -0.930065981744E+02   -0.28080E-03   -0.28079E-03 10752   0.487E-03-0.428E-06
CGA:   5    -0.930066682262E+02   -0.70052E-04   -0.70039E-04 10752   0.987E-03 0.150E-06
CGA:   6    -0.930067045456E+02   -0.36319E-04   -0.36331E-04 10752   0.736E-04 0.155E-06
CGA:   7    -0.930067158928E+02   -0.11347E-04   -0.11356E-04 10752   0.614E-04-0.162E-06
CGA:   8    -0.930067231686E+02   -0.72758E-05   -0.72794E-05 10752   0.397E-04-0.229E-06
CGA:   9    -0.930067244690E+02   -0.13004E-05   -0.12983E-05 10752   0.110E-04-0.271E-07
CGA:  10    -0.930067268584E+02   -0.23895E-05   -0.23792E-05 10752   0.608E-05 0.926E-07
CGA:  11    -0.930067274243E+02   -0.56584E-06   -0.56506E-06 10752   0.467E-05 0.355E-07
   5 F= -.93006727E+02 E0= -.93013694E+02  d E =-.412388E-04  mag=    23.8845
       N       E                     dE             d eps       ncg     rms          ort
SDA:   1    -0.930064395874E+02    0.28727E-03    0.00000E+00 10752   0.190E-02 0.000E+00
CGA:   2    -0.930065095217E+02   -0.69934E-04   -0.69944E-04 10752   0.940E-03-0.473E-06
CGA:   3    -0.930066049611E+02   -0.95439E-04   -0.95439E-04 10752   0.738E-03-0.248E-06
CGA:   4    -0.930066919549E+02   -0.86994E-04   -0.86996E-04 10752   0.139E-03-0.183E-06
CGA:   5    -0.930067103152E+02   -0.18360E-04   -0.18356E-04 10752   0.122E-03 0.830E-07
CGA:   6    -0.930067167484E+02   -0.64333E-05   -0.64344E-05 10752   0.831E-04 0.154E-07
CGA:   7    -0.930067212334E+02   -0.44849E-05   -0.44856E-05 10752   0.103E-04 0.217E-07
CGA:   8    -0.930067241752E+02   -0.29418E-05   -0.29575E-05 10752   0.369E-05-0.105E-06
CGA:   9    -0.930067244196E+02   -0.24445E-06   -0.24458E-06 10752   0.518E-05 0.369E-08
   6 F= -.93006724E+02 E0= -.93013687E+02  d E =-.382341E-04  mag=    23.8847
