 vasp.6.4.3 19Mar24 (build Mar 26 2024 14:05:37) complex                        
  
 executed on             LinuxIFC date 2024.12.16  08:43:07
 running  128 mpi-ranks, on    1 nodes
 distrk:  each k-point on   32 cores,    4 groups
 distr:  one band on NCORE=   1 cores,   32 groups


--------------------------------------------------------------------------------------------------------


 INCAR:
   ALGO = All
   EDIFF = 1e-06
   EDIFFG = -0.01
   ENCUT = 520
   GGA = Pe
   IBRION = 2
   ISIF = 4
   ISMEAR = 1
   ISPIN = 2
   KPAR = 4
   LCHARG = True
   LORBIT = 11
   LREAL = False
   LWAVE = False
   MAGMOM = 1*2.623 1*2.625 1*2.623 1*2.621 3*2.623 1*2.625 1*2.623 1*0.29 2*0.291
   NELM = 200
   NSW = 100
   PREC = Accurate
   SIGMA = 0.2

 POTCAR:    PAW_PBE Fe_pv 02Aug2007               
 POTCAR:    PAW_PBE Pt 04Feb2005                  
 -----------------------------------------------------------------------------
|                                                                             |
|           W    W    AA    RRRRR   N    N  II  N    N   GGGG   !!!           |
|           W    W   A  A   R    R  NN   N  II  NN   N  G    G  !!!           |
|           W    W  A    A  R    R  N N  N  II  N N  N  G       !!!           |
|           W WW W  AAAAAA  RRRRR   N  N N  II  N  N N  G  GGG   !            |
|           WW  WW  A    A  R   R   N   NN  II  N   NN  G    G                |
|           W    W  A    A  R    R  N    N  II  N    N   GGGG   !!!           |
|                                                                             |
|     For optimal performance we recommend to set                             |
|       NCORE = 2 up to number-of-cores-per-socket                            |
|     NCORE specifies how many cores store one orbital (NPAR=cpu/NCORE).      |
|     This setting can greatly improve the performance of VASP for DFT.       |
|     The default, NCORE=1 might be grossly inefficient on modern             |
|     multi-core architectures or massively parallel machines. Do your        |
|     own testing! More info at https://www.vasp.at/wiki/index.php/NCORE      |
|     Unfortunately you need to use the default for GW and RPA                |
|     calculations (for HF NCORE is supported but not extensively tested      |
|     yet).                                                                   |
|                                                                             |
 -----------------------------------------------------------------------------

 POTCAR:    PAW_PBE Fe_pv 02Aug2007               
   SHA256 =  5d22e414b1f82158bf2c7ecb8b97b28fd0923e48cadc1c3bf74d524558f5dd32 Fe_pv/POTCAR          
   COPYR  = (c) Copyright 02Aug2007 Georg Kresse                                                    
   COPYR  = This file is part of the software VASP. Any use, copying, and all other rights are regul
   COPYR  = If you do not have a valid VASP license, you may not use, copy or distribute this file. 
   VRHFIN =Fe:  3pd7s1                                                                              
   LEXCH  = PE                                                                                      
   EATOM  =  2457.4239 eV,  180.6156 Ry                                                             
                                                                                                    
   TITEL  = PAW_PBE Fe_pv 02Aug2007                                                                 
   LULTRA =        F    use ultrasoft PP ?                                                          
   IUNSCR =        1    unscreen: 0-lin 1-nonlin 2-no                                               
   RPACOR =    1.750    partial core radius                                                         
   POMASS =   55.847; ZVAL   =   14.000    mass and valenz                                          
   RCORE  =    2.200    outmost cutoff radius                                                       
   RWIGS  =    2.200; RWIGS  =    1.164    wigner-seitz radius (au A)                               
   ENMAX  =  293.238; ENMIN  =  219.928 eV                                                          
   ICORE  =        3    local potential                                                             
   LCOR   =        T    correct aug charges                                                         
   LPAW   =        T    paw PP                                                                      
   EAUG   =  578.342                                                                                
   DEXC   =    0.000                                                                                
   RMAX   =    2.249    core radius for proj-oper                                                   
   RAUG   =    1.300    factor for augmentation sphere                                              
   RDEP   =    2.296    radius for radial grids                                                     
   RDEPT  =    1.766    core radius for aug-charge                                                  
                                                                                                    
   Atomic configuration                                                                             
    8 entries                                                                                       
     n  l   j            E        occ.                                                              
     1  0  0.50     -6993.8440   2.0000                                                             
     2  0  0.50      -814.6047   2.0000                                                             
     2  1  1.50      -693.3689   6.0000                                                             
     3  0  0.50       -89.4732   2.0000                                                             
     3  1  1.50       -55.6373   6.0000                                                             
     3  2  2.50        -3.8151   7.0000                                                             
     4  0  0.50        -4.2551   1.0000                                                             
     4  3  2.50        -1.3606   0.0000                                                             
   Description                                                                                      
     l       E           TYP  RCUT    TYP  RCUT                                                     
     1    -55.6372668     23  2.000                                                                 
     1     -5.4423304     23  2.000                                                                 
     2     -3.8151096     23  2.200                                                                 
     2     -5.1756922     23  2.200                                                                 
     0     -4.2550951     23  2.200                                                                 
     0     27.2116520     23  2.200                                                                 
     3     -1.3605826     23  2.200                                                                 
  local pseudopotential read in
  partial core-charges read in
  partial kinetic energy density read in
  atomic valenz-charges read in
  non local Contribution for L=           1  read in
    real space projection operators read in
  non local Contribution for L=           1  read in
    real space projection operators read in
  non local Contribution for L=           2  read in
    real space projection operators read in
  non local Contribution for L=           2  read in
    real space projection operators read in
  non local Contribution for L=           0  read in
    real space projection operators read in
  non local Contribution for L=           0  read in
    real space projection operators read in
    PAW grid and wavefunctions read in
 
   number of l-projection  operators is LMAX  =           6
   number of lm-projection operators is LMMAX =          18
 
 POTCAR:    PAW_PBE Pt 04Feb2005                  
   SHA256 =  3ed90460adef76debcff1cfb73ee1349b515b1a3db03439735b44de3a8db7dc8 Pt/POTCAR             
   COPYR  = (c) Copyright 04Feb2005 Georg Kresse                                                    
   COPYR  = This file is part of the software VASP. Any use, copying, and all other rights are regul
   COPYR  = If you do not have a valid VASP license, you may not use, copy or distribute this file. 
   VRHFIN =Pt: s1d9                                                                                 
   LEXCH  = PE                                                                                      
   EATOM  =   729.1176 eV,   53.5886 Ry                                                             
                                                                                                    
   TITEL  = PAW_PBE Pt 04Feb2005                                                                    
   LULTRA =        F    use ultrasoft PP ?                                                          
   IUNSCR =        1    unscreen: 0-lin 1-nonlin 2-no                                               
   RPACOR =    2.330    partial core radius                                                         
   POMASS =  195.080; ZVAL   =   10.000    mass and valenz                                          
   RCORE  =    2.600    outmost cutoff radius                                                       
   RWIGS  =    2.750; RWIGS  =    1.455    wigner-seitz radius (au A)                               
   ENMAX  =  230.283; ENMIN  =  172.712 eV                                                          
   ICORE  =        3    local potential                                                             
   LCOR   =        T    correct aug charges                                                         
   LPAW   =        T    paw PP                                                                      
   EAUG   =  358.966                                                                                
   DEXC   =    0.000                                                                                
   RMAX   =    2.658    core radius for proj-oper                                                   
   RAUG   =    1.300    factor for augmentation sphere                                              
   RDEP   =    2.761    radius for radial grids                                                     
   RDEPT  =    2.203    core radius for aug-charge                                                  
                                                                                                    
   Atomic configuration                                                                             
   16 entries                                                                                       
     n  l   j            E        occ.                                                              
     1  0  0.50    -78401.1885   2.0000                                                             
     2  0  0.50    -13770.7750   2.0000                                                             
     2  1  1.50    -11931.0468   6.0000                                                             
     3  0  0.50     -3234.7234   2.0000                                                             
     3  1  1.50     -2699.2216   6.0000                                                             
     3  2  2.50     -2119.5714  10.0000                                                             
     4  0  0.50      -695.1528   2.0000                                                             
     4  1  1.50      -519.6034   6.0000                                                             
     4  2  2.50      -306.6786  10.0000                                                             
     4  3  3.50       -70.1041  14.0000                                                             
     5  0  0.50      -101.7747   2.0000                                                             
     5  1  1.50       -55.9873   6.0000                                                             
     5  2  2.50        -6.1423   9.0000                                                             
     6  0  0.50        -5.6573   1.0000                                                             
     6  1  1.50        -6.8029   0.0000                                                             
     5  3  2.50        -1.3606   0.0000                                                             
   Description                                                                                      
     l       E           TYP  RCUT    TYP  RCUT                                                     
     2     -6.1423404     23  2.500                                                                 
     2     -7.5029230     23  2.500                                                                 
     0     -5.6573207     23  2.500                                                                 
     0      0.7416693     23  2.500                                                                 
     1     -2.7211652     23  2.600                                                                 
     1     20.4087390     23  2.600                                                                 
     3     -1.3605826     23  2.500                                                                 
  local pseudopotential read in
  partial core-charges read in
  partial kinetic energy density read in
  atomic valenz-charges read in
  non local Contribution for L=           2  read in
    real space projection operators read in
  non local Contribution for L=           2  read in
    real space projection operators read in
  non local Contribution for L=           0  read in
    real space projection operators read in
  non local Contribution for L=           0  read in
    real space projection operators read in
  non local Contribution for L=           1  read in
    real space projection operators read in
  non local Contribution for L=           1  read in
    real space projection operators read in
    PAW grid and wavefunctions read in
 
   number of l-projection  operators is LMAX  =           6
   number of lm-projection operators is LMMAX =          18
 
  PAW_PBE Fe_pv 02Aug2007               :
 energy of atom  1       EATOM=-2457.4239
 kinetic energy error for atom=    0.0062 (will be added to EATOM!!)
  PAW_PBE Pt 04Feb2005                  :
 energy of atom  2       EATOM= -729.1176
 kinetic energy error for atom=    0.0032 (will be added to EATOM!!)
 
 
 POSCAR: Fe9 Pt3
  positions in direct lattice
  No initial velocities read in


 exchange-correlation table for PE
   RHO(1)=    0.500       N(1)  =     2000
   RHO(2)=  100.500       N(2)  =     4000
 


--------------------------------------------------------------------------------------------------------


 ion  position               nearest neighbor table
   1  0.000  0.500  0.167-   7 2.57   7 2.57   7 2.57   7 2.57  10 2.58   4 2.58  10 2.58   4 2.58
                             5 2.58   5 2.58  11 2.58  11 2.58
   2  0.000  0.500  0.500-   8 2.57   8 2.57   8 2.57   8 2.57  11 2.58  12 2.58  12 2.58  11 2.58
                             5 2.58   6 2.58   5 2.58   6 2.58
   3  0.000  0.500  0.833-   9 2.57   9 2.57   9 2.57   9 2.57  10 2.58   4 2.58  10 2.58   4 2.58
                             6 2.58   6 2.58  12 2.58  12 2.58
   4  0.500  0.500  0.000-  10 2.57  10 2.57  10 2.57  10 2.57   1 2.58   7 2.58   9 2.58   3 2.58
                             1 2.58   3 2.58   7 2.58   9 2.58
   5  0.500  0.500  0.333-  11 2.57  11 2.57  11 2.57  11 2.57   7 2.58   1 2.58   1 2.58   7 2.58
                             8 2.58   2 2.58   8 2.58   2 2.58
   6  0.500  0.500  0.667-  12 2.57  12 2.57  12 2.57  12 2.57   9 2.58   3 2.58   3 2.58   9 2.58
                             2 2.58   8 2.58   2 2.58   8 2.58
   7  0.500  0.000  0.167-   1 2.57   1 2.57   1 2.57   1 2.57   4 2.58  10 2.58  10 2.58   4 2.58
                             5 2.58   5 2.58  11 2.58  11 2.58
   8  0.500  0.000  0.500-   2 2.57   2 2.57   2 2.57   2 2.57  12 2.58  11 2.58  12 2.58  11 2.58
                             6 2.58   5 2.58   5 2.58   6 2.58
   9  0.500  0.000  0.833-   3 2.57   3 2.57   3 2.57   3 2.57   4 2.58  10 2.58  10 2.58   4 2.58
                             6 2.58   6 2.58  12 2.58  12 2.58
  10  0.000  0.000  0.000-   4 2.57   4 2.57   4 2.57   4 2.57   9 2.58   1 2.58   3 2.58   3 2.58
                             1 2.58   7 2.58   9 2.58   7 2.58
  11  0.000  0.000  0.333-   5 2.57   5 2.57   5 2.57   5 2.57   2 2.58   8 2.58   8 2.58   2 2.58
                             1 2.58   7 2.58   7 2.58   1 2.58
  12  0.000  0.000  0.667-   6 2.57   6 2.57   6 2.57   6 2.57   2 2.58   8 2.58   8 2.58   2 2.58
                             3 2.58   3 2.58   9 2.58   9 2.58
 
  LATTYP: Found a simple tetragonal cell.
 ALAT       =     3.6415286924
 C/A-ratio  =     3.0027335306
  
  Lattice vectors:
  
 A1 = (   3.6415286924,   0.0000000000,   0.0000000000)
 A2 = (   0.0000000000,   3.6415286924,   0.0000000000)
 A3 = (   0.0000000000,   0.0000000000,  10.9345403073)


Analysis of symmetry for initial positions (statically):
=====================================================================
 Subroutine PRICEL returns:
 Original cell was already a primitive cell.
 

 Routine SETGRP: Setting up the symmetry group for a 
 simple tetragonal supercell.


 Subroutine GETGRP returns: Found 16 space group operations
 (whereof 16 operations were pure point group operations)
 out of a pool of 16 trial point group operations.


The static configuration has the point symmetry D_4h.


Analysis of symmetry for dynamics (positions and initial velocities):
=====================================================================
 Subroutine PRICEL returns:
 Original cell was already a primitive cell.
 

 Routine SETGRP: Setting up the symmetry group for a 
 simple tetragonal supercell.


 Subroutine GETGRP returns: Found 16 space group operations
 (whereof 16 operations were pure point group operations)
 out of a pool of 16 trial point group operations.


The dynamic configuration has the point symmetry D_4h.


Analysis of structural, dynamic, and magnetic symmetry:
=====================================================================
 Subroutine PRICEL returns:
 Original cell was already a primitive cell.
 

 Routine SETGRP: Setting up the symmetry group for a 
 simple tetragonal supercell.


 Subroutine GETGRP returns: Found 16 space group operations
 (whereof 16 operations were pure point group operations)
 out of a pool of 16 trial point group operations.


The overall configuration has the point symmetry D_4h.


 Subroutine INISYM returns: Found 16 space group operations
 (whereof 16 operations are pure point group operations),
 and found     1 'primitive' translations


----------------------------------------------------------------------------------------

                                     Primitive cell                                     

  volume of cell :     145.0000

  direct lattice vectors                    reciprocal lattice vectors
     3.641528692  0.000000000  0.000000000     0.274609947  0.000000000  0.000000000
     0.000000000  3.641528692  0.000000000     0.000000000  0.274609947  0.000000000
     0.000000000  0.000000000 10.934540307     0.000000000  0.000000000  0.091453319

  length of vectors
     3.641528692  3.641528692 10.934540307     0.274609947  0.274609947  0.091453319

  position of ions in fractional coordinates (direct lattice)
     0.000000000  0.500000000  0.166611204
     0.000000000  0.500000000  0.500000000
     0.000000000  0.500000000  0.833388796
     0.500000000  0.500000000  0.000000000
     0.500000000  0.500000000  0.333261410
     0.500000000  0.500000000  0.666738590
     0.500000000  0.000000000  0.166611204
     0.500000000  0.000000000  0.500000000
     0.500000000  0.000000000  0.833388796
     0.000000000  0.000000000  0.000000000
     0.000000000  0.000000000  0.333324505
     0.000000000  0.000000000  0.666675495

  ion indices of the primitive-cell ions
   primitive index   ion index
                 1           1
                 2           2
                 3           3
                 4           4
                 5           5
                 6           6
                 7           7
                 8           8
                 9           9
                10          10
                11          11
                12          12

----------------------------------------------------------------------------------------

 
 
 KPOINTS: pymatgen with grid density = 8800 / numb

Automatic generation of k-mesh.
 Grid dimensions read from file:
 generate k-points for:   13   13    4

 Generating k-lattice:

  Cartesian coordinates                     Fractional coordinates (reciprocal lattice)
     0.021123842  0.000000000  0.000000000     0.076923077  0.000000000  0.000000000
     0.000000000  0.021123842  0.000000000     0.000000000  0.076923077  0.000000000
     0.000000000  0.000000000  0.022863330     0.000000000  0.000000000  0.250000000

  Length of vectors
     0.021123842  0.021123842  0.022863330

  Shift w.r.t. Gamma in fractional coordinates (k-lattice)
     0.000000000  0.000000000  0.000000000

 
 Subroutine IBZKPT returns following result:
 ===========================================
 
 Found     84 irreducible k-points:
 
 Following reciprocal coordinates:
            Coordinates               Weight
  0.000000  0.000000  0.000000      1.000000
  0.076923  0.000000  0.000000      4.000000
  0.153846  0.000000  0.000000      4.000000
  0.230769  0.000000  0.000000      4.000000
  0.307692  0.000000  0.000000      4.000000
  0.384615  0.000000  0.000000      4.000000
  0.461538  0.000000  0.000000      4.000000
  0.076923  0.076923  0.000000      4.000000
  0.153846  0.076923  0.000000      8.000000
  0.230769  0.076923  0.000000      8.000000
  0.307692  0.076923  0.000000      8.000000
  0.384615  0.076923  0.000000      8.000000
  0.461538  0.076923  0.000000      8.000000
  0.153846  0.153846  0.000000      4.000000
  0.230769  0.153846  0.000000      8.000000
  0.307692  0.153846  0.000000      8.000000
  0.384615  0.153846  0.000000      8.000000
  0.461538  0.153846  0.000000      8.000000
  0.230769  0.230769  0.000000      4.000000
  0.307692  0.230769  0.000000      8.000000
  0.384615  0.230769  0.000000      8.000000
  0.461538  0.230769  0.000000      8.000000
  0.307692  0.307692  0.000000      4.000000
  0.384615  0.307692  0.000000      8.000000
  0.461538  0.307692  0.000000      8.000000
  0.384615  0.384615  0.000000      4.000000
  0.461538  0.384615  0.000000      8.000000
  0.461538  0.461538  0.000000      4.000000
  0.000000  0.000000  0.250000      2.000000
  0.076923  0.000000  0.250000      8.000000
  0.153846  0.000000  0.250000      8.000000
  0.230769  0.000000  0.250000      8.000000
  0.307692  0.000000  0.250000      8.000000
  0.384615  0.000000  0.250000      8.000000
  0.461538  0.000000  0.250000      8.000000
  0.076923  0.076923  0.250000      8.000000
  0.153846  0.076923  0.250000     16.000000
  0.230769  0.076923  0.250000     16.000000
  0.307692  0.076923  0.250000     16.000000
  0.384615  0.076923  0.250000     16.000000
  0.461538  0.076923  0.250000     16.000000
  0.153846  0.153846  0.250000      8.000000
  0.230769  0.153846  0.250000     16.000000
  0.307692  0.153846  0.250000     16.000000
  0.384615  0.153846  0.250000     16.000000
  0.461538  0.153846  0.250000     16.000000
  0.230769  0.230769  0.250000      8.000000
  0.307692  0.230769  0.250000     16.000000
  0.384615  0.230769  0.250000     16.000000
  0.461538  0.230769  0.250000     16.000000
  0.307692  0.307692  0.250000      8.000000
  0.384615  0.307692  0.250000     16.000000
  0.461538  0.307692  0.250000     16.000000
  0.384615  0.384615  0.250000      8.000000
  0.461538  0.384615  0.250000     16.000000
  0.461538  0.461538  0.250000      8.000000
  0.000000  0.000000  0.500000      1.000000
  0.076923  0.000000  0.500000      4.000000
  0.153846  0.000000  0.500000      4.000000
  0.230769  0.000000  0.500000      4.000000
  0.307692  0.000000  0.500000      4.000000
  0.384615  0.000000  0.500000      4.000000
  0.461538  0.000000  0.500000      4.000000
  0.076923  0.076923  0.500000      4.000000
  0.153846  0.076923  0.500000      8.000000
  0.230769  0.076923  0.500000      8.000000
  0.307692  0.076923  0.500000      8.000000
  0.384615  0.076923  0.500000      8.000000
  0.461538  0.076923  0.500000      8.000000
  0.153846  0.153846  0.500000      4.000000
  0.230769  0.153846  0.500000      8.000000
  0.307692  0.153846  0.500000      8.000000
  0.384615  0.153846  0.500000      8.000000
  0.461538  0.153846  0.500000      8.000000
  0.230769  0.230769  0.500000      4.000000
  0.307692  0.230769  0.500000      8.000000
  0.384615  0.230769  0.500000      8.000000
  0.461538  0.230769  0.500000      8.000000
  0.307692  0.307692  0.500000      4.000000
  0.384615  0.307692  0.500000      8.000000
  0.461538  0.307692  0.500000      8.000000
  0.384615  0.384615  0.500000      4.000000
  0.461538  0.384615  0.500000      8.000000
  0.461538  0.461538  0.500000      4.000000
 
 Following cartesian coordinates:
            Coordinates               Weight
  0.000000  0.000000  0.000000      1.000000
  0.021124  0.000000  0.000000      4.000000
  0.042248  0.000000  0.000000      4.000000
  0.063372  0.000000  0.000000      4.000000
  0.084495  0.000000  0.000000      4.000000
  0.105619  0.000000  0.000000      4.000000
  0.126743  0.000000  0.000000      4.000000
  0.021124  0.021124  0.000000      4.000000
  0.042248  0.021124  0.000000      8.000000
  0.063372  0.021124  0.000000      8.000000
  0.084495  0.021124  0.000000      8.000000
  0.105619  0.021124  0.000000      8.000000
  0.126743  0.021124  0.000000      8.000000
  0.042248  0.042248  0.000000      4.000000
  0.063372  0.042248  0.000000      8.000000
  0.084495  0.042248  0.000000      8.000000
  0.105619  0.042248  0.000000      8.000000
  0.126743  0.042248  0.000000      8.000000
  0.063372  0.063372  0.000000      4.000000
  0.084495  0.063372  0.000000      8.000000
  0.105619  0.063372  0.000000      8.000000
  0.126743  0.063372  0.000000      8.000000
  0.084495  0.084495  0.000000      4.000000
  0.105619  0.084495  0.000000      8.000000
  0.126743  0.084495  0.000000      8.000000
  0.105619  0.105619  0.000000      4.000000
  0.126743  0.105619  0.000000      8.000000
  0.126743  0.126743  0.000000      4.000000
  0.000000  0.000000  0.022863      2.000000
  0.021124  0.000000  0.022863      8.000000
  0.042248  0.000000  0.022863      8.000000
  0.063372  0.000000  0.022863      8.000000
  0.084495  0.000000  0.022863      8.000000
  0.105619  0.000000  0.022863      8.000000
  0.126743  0.000000  0.022863      8.000000
  0.021124  0.021124  0.022863      8.000000
  0.042248  0.021124  0.022863     16.000000
  0.063372  0.021124  0.022863     16.000000
  0.084495  0.021124  0.022863     16.000000
  0.105619  0.021124  0.022863     16.000000
  0.126743  0.021124  0.022863     16.000000
  0.042248  0.042248  0.022863      8.000000
  0.063372  0.042248  0.022863     16.000000
  0.084495  0.042248  0.022863     16.000000
  0.105619  0.042248  0.022863     16.000000
  0.126743  0.042248  0.022863     16.000000
  0.063372  0.063372  0.022863      8.000000
  0.084495  0.063372  0.022863     16.000000
  0.105619  0.063372  0.022863     16.000000
  0.126743  0.063372  0.022863     16.000000
  0.084495  0.084495  0.022863      8.000000
  0.105619  0.084495  0.022863     16.000000
  0.126743  0.084495  0.022863     16.000000
  0.105619  0.105619  0.022863      8.000000
  0.126743  0.105619  0.022863     16.000000
  0.126743  0.126743  0.022863      8.000000
  0.000000  0.000000  0.045727      1.000000
  0.021124  0.000000  0.045727      4.000000
  0.042248  0.000000  0.045727      4.000000
  0.063372  0.000000  0.045727      4.000000
  0.084495  0.000000  0.045727      4.000000
  0.105619  0.000000  0.045727      4.000000
  0.126743  0.000000  0.045727      4.000000
  0.021124  0.021124  0.045727      4.000000
  0.042248  0.021124  0.045727      8.000000
  0.063372  0.021124  0.045727      8.000000
  0.084495  0.021124  0.045727      8.000000
  0.105619  0.021124  0.045727      8.000000
  0.126743  0.021124  0.045727      8.000000
  0.042248  0.042248  0.045727      4.000000
  0.063372  0.042248  0.045727      8.000000
  0.084495  0.042248  0.045727      8.000000
  0.105619  0.042248  0.045727      8.000000
  0.126743  0.042248  0.045727      8.000000
  0.063372  0.063372  0.045727      4.000000
  0.084495  0.063372  0.045727      8.000000
  0.105619  0.063372  0.045727      8.000000
  0.126743  0.063372  0.045727      8.000000
  0.084495  0.084495  0.045727      4.000000
  0.105619  0.084495  0.045727      8.000000
  0.126743  0.084495  0.045727      8.000000
  0.105619  0.105619  0.045727      4.000000
  0.126743  0.105619  0.045727      8.000000
  0.126743  0.126743  0.045727      4.000000
 


--------------------------------------------------------------------------------------------------------




 Dimension of arrays:
   k-points           NKPTS =     84   k-points in BZ     NKDIM =     84   number of bands    NBANDS=    128
   number of dos      NEDOS =    301   number of ions     NIONS =     12
   non local maximal  LDIM  =      6   non local SUM 2l+1 LMDIM =     18
   total plane-waves  NPLWV =  65856
   max r-space proj   IRMAX =      1   max aug-charges    IRDMAX=  27705
   dimension x,y,z NGX =    28 NGY =   28 NGZ =   84
   dimension x,y,z NGXF=    56 NGYF=   56 NGZF=  168
   support grid    NGXF=    56 NGYF=   56 NGZF=  168
   ions per type =               9   3
   NGX,Y,Z   is equivalent  to a cutoff of  12.78, 12.78, 12.77 a.u.
   NGXF,Y,Z  is equivalent  to a cutoff of  25.57, 25.57, 25.54 a.u.

 SYSTEM =  unknown system                          
 POSCAR =  Fe9 Pt3                                 

 Startparameter for this run:
   NWRITE =      2    write-flag & timer
   PREC   = accura    normal or accurate (medium, high low for compatibility)
   ISTART =      0    job   : 0-new  1-cont  2-samecut
   ICHARG =      2    charge: 1-file 2-atom 10-const
   ISPIN  =      2    spin polarized calculation?
   LNONCOLLINEAR =      F non collinear calculations
   LSORBIT =      F    spin-orbit coupling
   INIWAV =      1    electr: 0-lowe 1-rand  2-diag
   LASPH  =      F    aspherical Exc in radial PAW
 Electronic Relaxation 1
   ENCUT  =  520.0 eV  38.22 Ry    6.18 a.u.   6.77  6.77 20.33*2*pi/ulx,y,z
   ENINI  =  520.0     initial cutoff
   ENAUG  =  578.3 eV  augmentation charge cutoff
   NELM   =    200;   NELMIN=  2; NELMDL=  0     # of ELM steps 
   EDIFF  = 0.1E-05   stopping-criterion for ELM
   LREAL  =      F    real-space projection
   NLSPLINE    = F    spline interpolate recip. space projectors
   LCOMPAT=      F    compatible to vasp.4.4
   GGA_COMPAT  = T    GGA compatible to vasp.4.4-vasp.4.6
   LMAXPAW     = -100 max onsite density
   LMAXMIX     =    2 max onsite mixed and CHGCAR
   VOSKOWN=      0    Vosko Wilk Nusair interpolation
   ROPT   =    0.00000   0.00000
 Ionic relaxation
   EDIFFG = -.1E-01   stopping-criterion for IOM
   NSW    =    100    number of steps for IOM
   NBLOCK =      1;   KBLOCK =    100    inner block; outer block 
   IBRION =      2    ionic relax: 0-MD 1-quasi-New 2-CG
   NFREE  =      1    steps in history (QN), initial steepest desc. (CG)
   ISIF   =      4    stress and relaxation
   IWAVPR =     11    prediction:  0-non 1-charg 2-wave 3-comb
   ISYM   =      2    0-nonsym 1-usesym 2-fastsym
   LCORR  =      T    Harris-Foulkes like correction to forces

   POTIM  = 0.5000    time-step for ionic-motion
   TEIN   =    0.0    initial temperature
   TEBEG  =    0.0;   TEEND  =   0.0 temperature during run
   SMASS  =  -3.00    Nose mass-parameter (am)
   estimated Nose-frequenzy (Omega)   =  0.10E-29 period in steps = 0.13E+47 mass=  -0.303E-27a.u.
   SCALEE = 1.0000    scale energy and forces
   NPACO  =    256;   APACO  = 10.0  distance and # of slots for P.C.
   PSTRESS=    0.0 pullay stress

  Mass of Ions in am
   POMASS =  55.85195.08
  Ionic Valenz
   ZVAL   =  14.00 10.00
  Atomic Wigner-Seitz radii
   RWIGS  =  -1.00 -1.00
  virtual crystal weights 
   VCA    =   1.00  1.00
   NELECT =     156.0000    total number of electrons
   NUPDOWN=      -1.0000    fix difference up-down

 DOS related values:
   EMIN   =  10.00;   EMAX   =-10.00  energy-range for DOS
   EFERMI =   0.00;   METHOD = LEGACY      
   ISMEAR =     1;   SIGMA  =   0.20  broadening in eV -4-tet -1-fermi 0-gaus

 Electronic relaxation 2 (details)
   IALGO  =     58    algorithm
   LDIAG  =      T    sub-space diagonalisation (order eigenvalues)
   LSUBROT=      F    optimize rotation matrix (better conditioning)
   TURBO    =      0    0=normal 1=particle mesh
   IRESTART =      0    0=no restart 2=restart with 2 vectors
   NREBOOT  =      0    no. of reboots
   NMIN     =      0    reboot dimension
   EREF     =   0.00    reference energy to select bands
   IMIX   =      4    mixing-type and parameters
     AMIX     =   0.40;   BMIX     =  1.00
     AMIX_MAG =   1.60;   BMIX_MAG =  1.00
     AMIN     =   0.10
     WC   =   100.;   INIMIX=   1;  MIXPRE=   1;  MAXMIX= -45

 Intra band minimization:
   WEIMIN = 0.0010     energy-eigenvalue tresh-hold
   EBREAK =  0.20E-08  absolut break condition
   DEPER  =   0.30     relativ break condition  

   TIME   =   0.40     timestep for ELM

  volume/ion in A,a.u.               =      12.08        81.54
  Fermi-wavevector in a.u.,A,eV,Ry     =   1.677492  3.170000 38.286498  2.813978
  Thomas-Fermi vector in A             =   2.761748
 
 Write flags
   LWAVE        =      F    write WAVECAR
   LDOWNSAMPLE  =      F    k-point downsampling of WAVECAR
   LCHARG       =      T    write CHGCAR
   LVTOT        =      F    write LOCPOT, total local potential
   LVHAR        =      F    write LOCPOT, Hartree potential only
   WRT_POTENTIAL= false  ! write potential to hdf5 file
   LELF         =      F    write electronic localiz. function (ELF)
   LORBIT       =     11    0 simple, 1 ext, 2 COOP (PROOUT), +10 PAW based schemes


 Dipole corrections
   LMONO      =      F    monopole corrections only (constant potential shift)
   LDIPOL     =      F    correct potential (dipole corrections)
   IDIPOL     =      0    1-x, 2-y, 3-z, 4-all directions 
   EPSILON    =  1.0000000 bulk dielectric constant
   LVACPOTAV  =      F  vacuum potentials using an averaging scheme for the charge density
   VACPOTFLAT =  0.1000000 required flatness to determine vacuum potential
 Exchange correlation treatment:
   GGA     = PE    functional components
   XC_C    = 1    coefficients multiplying the functional components
   LIBXC   =     F    Libxc                    
   VOSKOWN =     0    Vosko Wilk Nusair interpolation
   LHFCALC =     F    Hartree Fock is set to
   LHFONE  =     F    Hartree Fock one center treatment
   AEXX    =    0.0000 exact exchange contribution

 Parameters of functionals:
   PE:
     No parameter
 
 Van der Waals corrections
   IVDW    =     0    specifies the selected vdW correction

 Linear response parameters
   LEPSILON=     F    determine dielectric tensor
   LRPA    =     F    only Hartree local field effects (RPA)
   LNABLA  =     F    use nabla operator in PAW spheres
   LVEL    =     F    velocity operator in full k-point grid
   CSHIFT  =0.1000    complex shift for real part using Kramers Kronig
   OMEGAMAX=  -1.0    maximum frequency
   DEG_THRESHOLD= 0.2000000E-02 threshold for treating states as degnerate
   RTIME   =   -0.100 relaxation time in fs
  (WPLASMAI=    0.000 imaginary part of plasma frequency in eV, 0.658/RTIME)
   DFIELD  = 0.0000000 0.0000000 0.0000000 field for delta impulse in time
 
  Optional k-point grid parameters
   LKPOINTS_OPT  =     F    use optional k-point grid
   KPOINTS_OPT_MODE=     1    mode for optional k-point grid
 
 Orbital magnetization related:
   ORBITALMAG=     F  switch on orbital magnetization
   LCHIMAG   =     F  perturbation theory with respect to B field
   DQ        =  0.001000  dq finite difference perturbation B field
   LLRAUG    =     F  two centre corrections for induced B field
   LBONE     =     F  B-component reconstruction in AE one-centre
   LVGVCALC  =     T  calculate vGv susceptibility
   LVGVAPPL  =     F  apply vGv susceptibility instead of pGv for G=0

 Random number generation:
   RANDOM_GENERATOR = DEFAULT
   PCG_SEED         = not used


--------------------------------------------------------------------------------------------------------


 conjugate gradient relaxation of ions
 charge density and potential will be updated during run
 spin polarized calculation
 Conjugate gradient for all bands (Freysoldt, et al. PRB 79, 241103 (2009))
 preconditioned conjugated gradient                                        
 perform sub-space diagonalisation
    before iterative eigenvector-optimisation
 modified Broyden-mixing scheme, WC =      100.0
 initial mixing is a Kerker type mixing with AMIX =  0.4000 and BMIX =      1.0000
 Hartree-type preconditioning will be used
 using additional bands           50
 reciprocal scheme for non local part
 use partial core corrections
 no Harris-corrections to forces 
 use gradient corrections 
 use of overlap-Matrix (Vanderbilt PP)
 Methfessel and Paxton  Order N= 1 SIGMA  =   0.20


--------------------------------------------------------------------------------------------------------


  energy-cutoff  :      520.00
  volume of cell :      145.00
      direct lattice vectors                 reciprocal lattice vectors
     3.641528692  0.000000000  0.000000000     0.274609947  0.000000000  0.000000000
     0.000000000  3.641528692  0.000000000     0.000000000  0.274609947  0.000000000
     0.000000000  0.000000000 10.934540307     0.000000000  0.000000000  0.091453319

  length of vectors
     3.641528692  3.641528692 10.934540307     0.274609947  0.274609947  0.091453319


 
 k-points in units of 2pi/SCALE and weight: pymatgen with grid density = 8800 / numb
   0.00000000  0.00000000  0.00000000       0.001
   0.02112384  0.00000000  0.00000000       0.006
   0.04224768  0.00000000  0.00000000       0.006
   0.06337153  0.00000000  0.00000000       0.006
   0.08449537  0.00000000  0.00000000       0.006
   0.10561921  0.00000000  0.00000000       0.006
   0.12674305  0.00000000  0.00000000       0.006
   0.02112384  0.02112384  0.00000000       0.006
   0.04224768  0.02112384  0.00000000       0.012
   0.06337153  0.02112384  0.00000000       0.012
   0.08449537  0.02112384  0.00000000       0.012
   0.10561921  0.02112384  0.00000000       0.012
   0.12674305  0.02112384  0.00000000       0.012
   0.04224768  0.04224768  0.00000000       0.006
   0.06337153  0.04224768  0.00000000       0.012
   0.08449537  0.04224768  0.00000000       0.012
   0.10561921  0.04224768  0.00000000       0.012
   0.12674305  0.04224768  0.00000000       0.012
   0.06337153  0.06337153  0.00000000       0.006
   0.08449537  0.06337153  0.00000000       0.012
   0.10561921  0.06337153  0.00000000       0.012
   0.12674305  0.06337153  0.00000000       0.012
   0.08449537  0.08449537  0.00000000       0.006
   0.10561921  0.08449537  0.00000000       0.012
   0.12674305  0.08449537  0.00000000       0.012
   0.10561921  0.10561921  0.00000000       0.006
   0.12674305  0.10561921  0.00000000       0.012
   0.12674305  0.12674305  0.00000000       0.006
   0.00000000  0.00000000  0.02286333       0.003
   0.02112384  0.00000000  0.02286333       0.012
   0.04224768  0.00000000  0.02286333       0.012
   0.06337153  0.00000000  0.02286333       0.012
   0.08449537  0.00000000  0.02286333       0.012
   0.10561921  0.00000000  0.02286333       0.012
   0.12674305  0.00000000  0.02286333       0.012
   0.02112384  0.02112384  0.02286333       0.012
   0.04224768  0.02112384  0.02286333       0.024
   0.06337153  0.02112384  0.02286333       0.024
   0.08449537  0.02112384  0.02286333       0.024
   0.10561921  0.02112384  0.02286333       0.024
   0.12674305  0.02112384  0.02286333       0.024
   0.04224768  0.04224768  0.02286333       0.012
   0.06337153  0.04224768  0.02286333       0.024
   0.08449537  0.04224768  0.02286333       0.024
   0.10561921  0.04224768  0.02286333       0.024
   0.12674305  0.04224768  0.02286333       0.024
   0.06337153  0.06337153  0.02286333       0.012
   0.08449537  0.06337153  0.02286333       0.024
   0.10561921  0.06337153  0.02286333       0.024
   0.12674305  0.06337153  0.02286333       0.024
   0.08449537  0.08449537  0.02286333       0.012
   0.10561921  0.08449537  0.02286333       0.024
   0.12674305  0.08449537  0.02286333       0.024
   0.10561921  0.10561921  0.02286333       0.012
   0.12674305  0.10561921  0.02286333       0.024
   0.12674305  0.12674305  0.02286333       0.012
   0.00000000  0.00000000  0.04572666       0.001
   0.02112384  0.00000000  0.04572666       0.006
   0.04224768  0.00000000  0.04572666       0.006
   0.06337153  0.00000000  0.04572666       0.006
   0.08449537  0.00000000  0.04572666       0.006
   0.10561921  0.00000000  0.04572666       0.006
   0.12674305  0.00000000  0.04572666       0.006
   0.02112384  0.02112384  0.04572666       0.006
   0.04224768  0.02112384  0.04572666       0.012
   0.06337153  0.02112384  0.04572666       0.012
   0.08449537  0.02112384  0.04572666       0.012
   0.10561921  0.02112384  0.04572666       0.012
   0.12674305  0.02112384  0.04572666       0.012
   0.04224768  0.04224768  0.04572666       0.006
   0.06337153  0.04224768  0.04572666       0.012
   0.08449537  0.04224768  0.04572666       0.012
   0.10561921  0.04224768  0.04572666       0.012
   0.12674305  0.04224768  0.04572666       0.012
   0.06337153  0.06337153  0.04572666       0.006
   0.08449537  0.06337153  0.04572666       0.012
   0.10561921  0.06337153  0.04572666       0.012
   0.12674305  0.06337153  0.04572666       0.012
   0.08449537  0.08449537  0.04572666       0.006
   0.10561921  0.08449537  0.04572666       0.012
   0.12674305  0.08449537  0.04572666       0.012
   0.10561921  0.10561921  0.04572666       0.006
   0.12674305  0.10561921  0.04572666       0.012
   0.12674305  0.12674305  0.04572666       0.006
 
 k-points in reciprocal lattice and weights: pymatgen with grid density = 8800 / numb
   0.00000000  0.00000000  0.00000000       0.001
   0.07692308  0.00000000  0.00000000       0.006
   0.15384615  0.00000000  0.00000000       0.006
   0.23076923  0.00000000  0.00000000       0.006
   0.30769231  0.00000000  0.00000000       0.006
   0.38461538  0.00000000  0.00000000       0.006
   0.46153846  0.00000000  0.00000000       0.006
   0.07692308  0.07692308  0.00000000       0.006
   0.15384615  0.07692308  0.00000000       0.012
   0.23076923  0.07692308  0.00000000       0.012
   0.30769231  0.07692308  0.00000000       0.012
   0.38461538  0.07692308  0.00000000       0.012
   0.46153846  0.07692308  0.00000000       0.012
   0.15384615  0.15384615  0.00000000       0.006
   0.23076923  0.15384615  0.00000000       0.012
   0.30769231  0.15384615  0.00000000       0.012
   0.38461538  0.15384615  0.00000000       0.012
   0.46153846  0.15384615  0.00000000       0.012
   0.23076923  0.23076923  0.00000000       0.006
   0.30769231  0.23076923  0.00000000       0.012
   0.38461538  0.23076923  0.00000000       0.012
   0.46153846  0.23076923  0.00000000       0.012
   0.30769231  0.30769231  0.00000000       0.006
   0.38461538  0.30769231  0.00000000       0.012
   0.46153846  0.30769231  0.00000000       0.012
   0.38461538  0.38461538  0.00000000       0.006
   0.46153846  0.38461538  0.00000000       0.012
   0.46153846  0.46153846  0.00000000       0.006
   0.00000000  0.00000000  0.25000000       0.003
   0.07692308  0.00000000  0.25000000       0.012
   0.15384615  0.00000000  0.25000000       0.012
   0.23076923  0.00000000  0.25000000       0.012
   0.30769231  0.00000000  0.25000000       0.012
   0.38461538  0.00000000  0.25000000       0.012
   0.46153846  0.00000000  0.25000000       0.012
   0.07692308  0.07692308  0.25000000       0.012
   0.15384615  0.07692308  0.25000000       0.024
   0.23076923  0.07692308  0.25000000       0.024
   0.30769231  0.07692308  0.25000000       0.024
   0.38461538  0.07692308  0.25000000       0.024
   0.46153846  0.07692308  0.25000000       0.024
   0.15384615  0.15384615  0.25000000       0.012
   0.23076923  0.15384615  0.25000000       0.024
   0.30769231  0.15384615  0.25000000       0.024
   0.38461538  0.15384615  0.25000000       0.024
   0.46153846  0.15384615  0.25000000       0.024
   0.23076923  0.23076923  0.25000000       0.012
   0.30769231  0.23076923  0.25000000       0.024
   0.38461538  0.23076923  0.25000000       0.024
   0.46153846  0.23076923  0.25000000       0.024
   0.30769231  0.30769231  0.25000000       0.012
   0.38461538  0.30769231  0.25000000       0.024
   0.46153846  0.30769231  0.25000000       0.024
   0.38461538  0.38461538  0.25000000       0.012
   0.46153846  0.38461538  0.25000000       0.024
   0.46153846  0.46153846  0.25000000       0.012
   0.00000000  0.00000000  0.50000000       0.001
   0.07692308  0.00000000  0.50000000       0.006
   0.15384615  0.00000000  0.50000000       0.006
   0.23076923  0.00000000  0.50000000       0.006
   0.30769231  0.00000000  0.50000000       0.006
   0.38461538  0.00000000  0.50000000       0.006
   0.46153846  0.00000000  0.50000000       0.006
   0.07692308  0.07692308  0.50000000       0.006
   0.15384615  0.07692308  0.50000000       0.012
   0.23076923  0.07692308  0.50000000       0.012
   0.30769231  0.07692308  0.50000000       0.012
   0.38461538  0.07692308  0.50000000       0.012
   0.46153846  0.07692308  0.50000000       0.012
   0.15384615  0.15384615  0.50000000       0.006
   0.23076923  0.15384615  0.50000000       0.012
   0.30769231  0.15384615  0.50000000       0.012
   0.38461538  0.15384615  0.50000000       0.012
   0.46153846  0.15384615  0.50000000       0.012
   0.23076923  0.23076923  0.50000000       0.006
   0.30769231  0.23076923  0.50000000       0.012
   0.38461538  0.23076923  0.50000000       0.012
   0.46153846  0.23076923  0.50000000       0.012
   0.30769231  0.30769231  0.50000000       0.006
   0.38461538  0.30769231  0.50000000       0.012
   0.46153846  0.30769231  0.50000000       0.012
   0.38461538  0.38461538  0.50000000       0.006
   0.46153846  0.38461538  0.50000000       0.012
   0.46153846  0.46153846  0.50000000       0.006
 
 position of ions in fractional coordinates (direct lattice) 
   0.00000000  0.50000000  0.16661120
   0.00000000  0.50000000  0.50000000
   0.00000000  0.50000000  0.83338880
   0.50000000  0.50000000  0.00000000
   0.50000000  0.50000000  0.33326141
   0.50000000  0.50000000  0.66673859
   0.50000000  0.00000000  0.16661120
   0.50000000  0.00000000  0.50000000
   0.50000000  0.00000000  0.83338880
   0.00000000  0.00000000  0.00000000
   0.00000000  0.00000000  0.33332450
   0.00000000  0.00000000  0.66667550
 
 position of ions in cartesian coordinates  (Angst):
   0.00000000  1.82076435  1.82181693
   0.00000000  1.82076435  5.46727015
   0.00000000  1.82076435  9.11272338
   1.82076435  1.82076435  0.00000000
   1.82076435  1.82076435  3.64406032
   1.82076435  1.82076435  7.29047999
   1.82076435  0.00000000  1.82181693
   1.82076435  0.00000000  5.46727015
   1.82076435  0.00000000  9.11272338
   0.00000000  0.00000000  0.00000000
   0.00000000  0.00000000  3.64475023
   0.00000000  0.00000000  7.28979008
 


--------------------------------------------------------------------------------------------------------


 k-point     1 :   0.0000 0.0000 0.0000  plane waves:    3929
 k-point     2 :   0.0769 0.0000 0.0000  plane waves:    3929
 k-point     3 :   0.1538 0.0000 0.0000  plane waves:    3905
 k-point     4 :   0.2308 0.0000 0.0000  plane waves:    3902
 k-point     5 :   0.3077 0.0000 0.0000  plane waves:    3914
 k-point     6 :   0.3846 0.0000 0.0000  plane waves:    3906
 k-point     7 :   0.4615 0.0000 0.0000  plane waves:    3886
 k-point     8 :   0.0769 0.0769 0.0000  plane waves:    3915
 k-point     9 :   0.1538 0.0769 0.0000  plane waves:    3908
 k-point    10 :   0.2308 0.0769 0.0000  plane waves:    3911
 k-point    11 :   0.3077 0.0769 0.0000  plane waves:    3903
 k-point    12 :   0.3846 0.0769 0.0000  plane waves:    3897
 k-point    13 :   0.4615 0.0769 0.0000  plane waves:    3893
 k-point    14 :   0.1538 0.1538 0.0000  plane waves:    3901
 k-point    15 :   0.2308 0.1538 0.0000  plane waves:    3894
 k-point    16 :   0.3077 0.1538 0.0000  plane waves:    3905
 k-point    17 :   0.3846 0.1538 0.0000  plane waves:    3911
 k-point    18 :   0.4615 0.1538 0.0000  plane waves:    3903
 k-point    19 :   0.2308 0.2308 0.0000  plane waves:    3880
 k-point    20 :   0.3077 0.2308 0.0000  plane waves:    3890
 k-point    21 :   0.3846 0.2308 0.0000  plane waves:    3897
 k-point    22 :   0.4615 0.2308 0.0000  plane waves:    3899
 k-point    23 :   0.3077 0.3077 0.0000  plane waves:    3894
 k-point    24 :   0.3846 0.3077 0.0000  plane waves:    3908
 k-point    25 :   0.4615 0.3077 0.0000  plane waves:    3908
 k-point    26 :   0.3846 0.3846 0.0000  plane waves:    3918
 k-point    27 :   0.4615 0.3846 0.0000  plane waves:    3914
 k-point    28 :   0.4615 0.4615 0.0000  plane waves:    3924
 k-point    29 :   0.0000 0.0000 0.2500  plane waves:    3925
 k-point    30 :   0.0769 0.0000 0.2500  plane waves:    3910
 k-point    31 :   0.1538 0.0000 0.2500  plane waves:    3907
 k-point    32 :   0.2308 0.0000 0.2500  plane waves:    3896
 k-point    33 :   0.3077 0.0000 0.2500  plane waves:    3908
 k-point    34 :   0.3846 0.0000 0.2500  plane waves:    3909
 k-point    35 :   0.4615 0.0000 0.2500  plane waves:    3899
 k-point    36 :   0.0769 0.0769 0.2500  plane waves:    3912
 k-point    37 :   0.1538 0.0769 0.2500  plane waves:    3910
 k-point    38 :   0.2308 0.0769 0.2500  plane waves:    3905
 k-point    39 :   0.3077 0.0769 0.2500  plane waves:    3901
 k-point    40 :   0.3846 0.0769 0.2500  plane waves:    3908
 k-point    41 :   0.4615 0.0769 0.2500  plane waves:    3893
 k-point    42 :   0.1538 0.1538 0.2500  plane waves:    3904
 k-point    43 :   0.2308 0.1538 0.2500  plane waves:    3896
 k-point    44 :   0.3077 0.1538 0.2500  plane waves:    3901
 k-point    45 :   0.3846 0.1538 0.2500  plane waves:    3907
 k-point    46 :   0.4615 0.1538 0.2500  plane waves:    3896
 k-point    47 :   0.2308 0.2308 0.2500  plane waves:    3899
 k-point    48 :   0.3077 0.2308 0.2500  plane waves:    3891
 k-point    49 :   0.3846 0.2308 0.2500  plane waves:    3900
 k-point    50 :   0.4615 0.2308 0.2500  plane waves:    3904
 k-point    51 :   0.3077 0.3077 0.2500  plane waves:    3901
 k-point    52 :   0.3846 0.3077 0.2500  plane waves:    3902
 k-point    53 :   0.4615 0.3077 0.2500  plane waves:    3906
 k-point    54 :   0.3846 0.3846 0.2500  plane waves:    3912
 k-point    55 :   0.4615 0.3846 0.2500  plane waves:    3918
 k-point    56 :   0.4615 0.4615 0.2500  plane waves:    3938
 k-point    57 :   0.0000 0.0000 0.5000  plane waves:    3888
 k-point    58 :   0.0769 0.0000 0.5000  plane waves:    3890
 k-point    59 :   0.1538 0.0000 0.5000  plane waves:    3898
 k-point    60 :   0.2308 0.0000 0.5000  plane waves:    3902
 k-point    61 :   0.3077 0.0000 0.5000  plane waves:    3896
 k-point    62 :   0.3846 0.0000 0.5000  plane waves:    3910
 k-point    63 :   0.4615 0.0000 0.5000  plane waves:    3890
 k-point    64 :   0.0769 0.0769 0.5000  plane waves:    3892
 k-point    65 :   0.1538 0.0769 0.5000  plane waves:    3900
 k-point    66 :   0.2308 0.0769 0.5000  plane waves:    3894
 k-point    67 :   0.3077 0.0769 0.5000  plane waves:    3898
 k-point    68 :   0.3846 0.0769 0.5000  plane waves:    3912
 k-point    69 :   0.4615 0.0769 0.5000  plane waves:    3898
 k-point    70 :   0.1538 0.1538 0.5000  plane waves:    3896
 k-point    71 :   0.2308 0.1538 0.5000  plane waves:    3910
 k-point    72 :   0.3077 0.1538 0.5000  plane waves:    3916
 k-point    73 :   0.3846 0.1538 0.5000  plane waves:    3888
 k-point    74 :   0.4615 0.1538 0.5000  plane waves:    3890
 k-point    75 :   0.2308 0.2308 0.5000  plane waves:    3900
 k-point    76 :   0.3077 0.2308 0.5000  plane waves:    3892
 k-point    77 :   0.3846 0.2308 0.5000  plane waves:    3900
 k-point    78 :   0.4615 0.2308 0.5000  plane waves:    3908
 k-point    79 :   0.3077 0.3077 0.5000  plane waves:    3918
 k-point    80 :   0.3846 0.3077 0.5000  plane waves:    3908
 k-point    81 :   0.4615 0.3077 0.5000  plane waves:    3924
 k-point    82 :   0.3846 0.3846 0.5000  plane waves:    3914
 k-point    83 :   0.4615 0.3846 0.5000  plane waves:    3918
 k-point    84 :   0.4615 0.4615 0.5000  plane waves:    3926

 maximum and minimum number of plane-waves per node :      3938     3880

 maximum number of plane-waves:      3938
 maximum index in each direction: 
   IXMAX=    6   IYMAX=    6   IZMAX=   20
   IXMIN=   -7   IYMIN=   -7   IZMIN=  -20


 serial   3D FFT for wavefunctions
 parallel 3D FFT for charge:
    minimum data exchange during FFTs selected (reduces bandwidth)


 total amount of memory used by VASP MPI-rank0   270045. kBytes
=======================================================================

   base      :      30000. kBytes
   nonl-proj :      96755. kBytes
   fftplans  :        888. kBytes
   grid      :       6813. kBytes
   one-center:        373. kBytes
   wavefun   :     135216. kBytes
 
     INWAV:  cpu time      0.0001: real time      0.0001
 Broyden mixing: mesh for mixing (old mesh)
   NGX = 13   NGY = 13   NGZ = 41
  (NGX  = 56   NGY  = 56   NGZ  =168)
  gives a total of   6929 points

 initial charge density was supplied:
 charge density of overlapping atoms calculated
 number of electron     156.0000000 magnetization      24.4810000
 charge density for first step will be calculated from the start-wavefunctions


--------------------------------------------------------------------------------------------------------


 Maximum index for augmentation-charges         1085 (set IRDMAX)


--------------------------------------------------------------------------------------------------------


 First call to EWALD:  gamma=   0.337
 Maximum number of real-space cells 4x 4x 2
 Maximum number of reciprocal cells 2x 2x 5

    FEWALD:  cpu time      0.0014: real time      0.0014


--------------------------------------- Ionic step        1  -------------------------------------------




--------------------------------------- Iteration      1(   1)  ---------------------------------------


    POTLOK:  cpu time      0.0309: real time      0.0313
    SETDIJ:  cpu time      0.0165: real time      0.0169
    TRIAL :  cpu time      8.8886: real time      8.9504
    CORREC:  cpu time      0.0045: real time      0.0046
    --------------------------------------------
      LOOP:  cpu time      9.0598: real time      9.1255

 eigenvalue-minimisations  : 43072
 total energy-change (2. order) : 0.1767461E+04  (-0.9142457E+04)
 number of electron     156.0000000 magnetization      24.4810000
 augmentation part      156.0000000 magnetization      24.4810000

 Free energy of the ion-electron system (eV)
  ---------------------------------------------------
  alpha Z        PSCENC =      1173.72503148
  Ewald energy   TEWEN  =    -18538.71255820
  -Hartree energ DENC   =     -5768.51674547
  -exchange      EXHF   =         0.00000000
  -V(xc)+E(xc)   XCENC  =       660.26862585
  PAW double counting   =     20094.27915416   -20818.23593114
  entropy T*S    EENTRO =         0.00316655
  eigenvalues    EBANDS =       660.54721197
  atomic energy  EATOM  =     24304.10294433
  ---------------------------------------------------
  free energy    TOTEN  =      1767.46089952 eV

  energy without entropy =     1767.45773296  energy(sigma->0) =     1767.45984400


--------------------------------------------------------------------------------------------------------




--------------------------------------- Iteration      1(   2)  ---------------------------------------


    TRIAL :  cpu time      5.6536: real time      5.6942
    CORREC:  cpu time      0.0025: real time      0.0025
    --------------------------------------------
      LOOP:  cpu time      5.6712: real time      5.7180

 eigenvalue-minimisations  : 43008
 total energy-change (2. order) :-0.1760549E+04  (-0.1668033E+04)
 number of electron     156.0000000 magnetization      24.4810000
 augmentation part      156.0000000 magnetization      24.4810000

 Free energy of the ion-electron system (eV)
  ---------------------------------------------------
  alpha Z        PSCENC =      1173.72503148
  Ewald energy   TEWEN  =    -18538.71255820
  -Hartree energ DENC   =     -5768.51674547
  -exchange      EXHF   =         0.00000000
  -V(xc)+E(xc)   XCENC  =       660.26862585
  PAW double counting   =     20094.27915416   -20818.23593114
  entropy T*S    EENTRO =        -0.00941539
  eigenvalues    EBANDS =     -1099.98930175
  atomic energy  EATOM  =     24304.10294433
  ---------------------------------------------------
  free energy    TOTEN  =         6.91180385 eV

  energy without entropy =        6.92121925  energy(sigma->0) =        6.91494232


--------------------------------------------------------------------------------------------------------




--------------------------------------- Iteration      1(   3)  ---------------------------------------


    TRIAL :  cpu time      6.6446: real time      6.6905
    CORREC:  cpu time      0.0025: real time      0.0025
    --------------------------------------------
      LOOP:  cpu time      6.6688: real time      6.7150

 eigenvalue-minimisations  : 50368
 total energy-change (2. order) :-0.1092304E+03  (-0.1076836E+03)
 number of electron     156.0000000 magnetization      24.4810000
 augmentation part      156.0000000 magnetization      24.4810000

 Free energy of the ion-electron system (eV)
  ---------------------------------------------------
  alpha Z        PSCENC =      1173.72503148
  Ewald energy   TEWEN  =    -18538.71255820
  -Hartree energ DENC   =     -5768.51674547
  -exchange      EXHF   =         0.00000000
  -V(xc)+E(xc)   XCENC  =       660.26862585
  PAW double counting   =     20094.27915416   -20818.23593114
  entropy T*S    EENTRO =        -0.03578019
  eigenvalues    EBANDS =     -1209.19334871
  atomic energy  EATOM  =     24304.10294433
  ---------------------------------------------------
  free energy    TOTEN  =      -102.31860790 eV

  energy without entropy =     -102.28282772  energy(sigma->0) =     -102.30668117


--------------------------------------------------------------------------------------------------------




--------------------------------------- Iteration      1(   4)  ---------------------------------------


    TRIAL :  cpu time      6.0633: real time      6.1073
    CORREC:  cpu time      0.0024: real time      0.0025
    --------------------------------------------
      LOOP:  cpu time      6.0861: real time      6.1321

 eigenvalue-minimisations  : 46528
 total energy-change (2. order) :-0.1523989E+01  (-0.1523644E+01)
 number of electron     156.0000000 magnetization      24.4810000
 augmentation part      156.0000000 magnetization      24.4810000

 Free energy of the ion-electron system (eV)
  ---------------------------------------------------
  alpha Z        PSCENC =      1173.72503148
  Ewald energy   TEWEN  =    -18538.71255820
  -Hartree energ DENC   =     -5768.51674547
  -exchange      EXHF   =         0.00000000
  -V(xc)+E(xc)   XCENC  =       660.26862585
  PAW double counting   =     20094.27915416   -20818.23593114
  entropy T*S    EENTRO =        -0.03589700
  eigenvalues    EBANDS =     -1210.71722048
  atomic energy  EATOM  =     24304.10294433
  ---------------------------------------------------
  free energy    TOTEN  =      -103.84259648 eV

  energy without entropy =     -103.80669948  energy(sigma->0) =     -103.83063082


--------------------------------------------------------------------------------------------------------




--------------------------------------- Iteration      1(   5)  ---------------------------------------


    TRIAL :  cpu time      7.0137: real time      7.0612
    CORREC:  cpu time      0.0026: real time      0.0026
    CHARGE:  cpu time      0.1735: real time      0.1753
    --------------------------------------------
      LOOP:  cpu time      7.2061: real time      7.2614

 eigenvalue-minimisations  : 52768
 total energy-change (2. order) :-0.2744570E-01  (-0.2744492E-01)
 number of electron     155.9999775 magnetization      18.9645302
 augmentation part       79.4032811 magnetization      13.6605132

 Free energy of the ion-electron system (eV)
  ---------------------------------------------------
  alpha Z        PSCENC =      1173.72503148
  Ewald energy   TEWEN  =    -18538.71255820
  -Hartree energ DENC   =     -5768.51674547
  -exchange      EXHF   =         0.00000000
  -V(xc)+E(xc)   XCENC  =       660.26862585
  PAW double counting   =     20094.27915416   -20818.23593114
  entropy T*S    EENTRO =        -0.03589808
  eigenvalues    EBANDS =     -1210.74466510
  atomic energy  EATOM  =     24304.10294433
  ---------------------------------------------------
  free energy    TOTEN  =      -103.87004218 eV

  energy without entropy =     -103.83414410  energy(sigma->0) =     -103.85807615


--------------------------------------------------------------------------------------------------------




--------------------------------------- Iteration      1(   6)  ---------------------------------------


    POTLOK:  cpu time      0.0222: real time      0.0225
    SETDIJ:  cpu time      0.0080: real time      0.0082
    TRIAL :  cpu time      2.8200: real time      2.8477
    CORREC:  cpu time      1.1022: real time      1.1122
    CHARGE:  cpu time      0.1638: real time      0.1648
    --------------------------------------------
      LOOP:  cpu time      4.1331: real time      4.1775

 eigenvalue-minimisations  :     0
 total energy-change (2. order) : 0.4391074E+02  (-0.2661125E+02)
 number of electron     155.9999764 magnetization      20.2225586
 augmentation part       83.4412397 magnetization      15.0340855

 Free energy of the ion-electron system (eV)
  ---------------------------------------------------
  alpha Z        PSCENC =      1173.72503148
  Ewald energy   TEWEN  =    -18538.71255820
  -Hartree energ DENC   =     -4718.88000456
  -exchange      EXHF   =         0.00000000
  -V(xc)+E(xc)   XCENC  =       615.09418316
  PAW double counting   =     21852.22120460   -22525.48928477
  entropy T*S    EENTRO =        -0.00660876
  eigenvalues    EBANDS =     -2221.98491640
  atomic energy  EATOM  =     24304.10294433
  ---------------------------------------------------
  free energy    TOTEN  =       -59.95929845 eV

  energy without entropy =      -59.95268969  energy(sigma->0) =      -59.95709553


--------------------------------------------------------------------------------------------------------




--------------------------------------- Iteration      1(   7)  ---------------------------------------


    POTLOK:  cpu time      0.0214: real time      0.0216
    SETDIJ:  cpu time      0.0080: real time      0.0081
    TRIAL :  cpu time      2.6682: real time      2.6953
    CORREC:  cpu time      1.0951: real time      1.1066
    CHARGE:  cpu time      0.1637: real time      0.1647
    --------------------------------------------
      LOOP:  cpu time      3.9734: real time      4.0193

 eigenvalue-minimisations  :     0
 total energy-change (2. order) :-0.2690333E+02  (-0.3351806E+01)
 number of electron     155.9999764 magnetization      20.9895538
 augmentation part       84.2725140 magnetization      15.7385935

 Free energy of the ion-electron system (eV)
  ---------------------------------------------------
  alpha Z        PSCENC =      1173.72503148
  Ewald energy   TEWEN  =    -18538.71255820
  -Hartree energ DENC   =     -5277.26665148
  -exchange      EXHF   =         0.00000000
  -V(xc)+E(xc)   XCENC  =       638.50043961
  PAW double counting   =     22509.32793879   -23290.62812763
  entropy T*S    EENTRO =        -0.00699583
  eigenvalues    EBANDS =     -1605.90503592
  atomic energy  EATOM  =     24304.10294433
  ---------------------------------------------------
  free energy    TOTEN  =       -86.86262778 eV

  energy without entropy =      -86.85563195  energy(sigma->0) =      -86.86029584


--------------------------------------------------------------------------------------------------------




--------------------------------------- Iteration      1(   8)  ---------------------------------------


    POTLOK:  cpu time      0.0224: real time      0.0226
    SETDIJ:  cpu time      0.0063: real time      0.0064
    TRIAL :  cpu time      2.6461: real time      2.6721
    CORREC:  cpu time      1.1444: real time      1.1559
    CHARGE:  cpu time      0.1587: real time      0.1595
    --------------------------------------------
      LOOP:  cpu time      3.9950: real time      4.0405

 eigenvalue-minimisations  :     0
 total energy-change (2. order) :-0.3350825E+01  (-0.8186239E+00)
 number of electron     155.9999764 magnetization      21.2245468
 augmentation part       84.4744873 magnetization      15.9463185

 Free energy of the ion-electron system (eV)
  ---------------------------------------------------
  alpha Z        PSCENC =      1173.72503148
  Ewald energy   TEWEN  =    -18538.71255820
  -Hartree energ DENC   =     -5364.93855749
  -exchange      EXHF   =         0.00000000
  -V(xc)+E(xc)   XCENC  =       642.92440619
  PAW double counting   =     22656.57587741   -23436.37329356
  entropy T*S    EENTRO =        -0.00499514
  eigenvalues    EBANDS =     -1527.51030730
  atomic energy  EATOM  =     24304.10294433
  ---------------------------------------------------
  free energy    TOTEN  =       -90.21345297 eV

  energy without entropy =      -90.20845783  energy(sigma->0) =      -90.21178793


--------------------------------------------------------------------------------------------------------




--------------------------------------- Iteration      1(   9)  ---------------------------------------


    POTLOK:  cpu time      0.0222: real time      0.0224
    SETDIJ:  cpu time      0.0072: real time      0.0072
    TRIAL :  cpu time      2.6561: real time      2.6817
    CORREC:  cpu time      1.0885: real time      1.0998
    CHARGE:  cpu time      0.1575: real time      0.1583
    --------------------------------------------
      LOOP:  cpu time      3.9477: real time      3.9925

 eigenvalue-minimisations  :     0
 total energy-change (2. order) :-0.1036524E+01  (-0.1782165E+00)
 number of electron     155.9999764 magnetization      21.2958830
 augmentation part       84.5003597 magnetization      16.0055607

 Free energy of the ion-electron system (eV)
  ---------------------------------------------------
  alpha Z        PSCENC =      1173.72503148
  Ewald energy   TEWEN  =    -18538.71255820
  -Hartree energ DENC   =     -5385.37536703
  -exchange      EXHF   =         0.00000000
  -V(xc)+E(xc)   XCENC  =       644.02977687
  PAW double counting   =     22705.98999417   -23484.56970219
  entropy T*S    EENTRO =        -0.00421828
  eigenvalues    EBANDS =     -1510.43510156
  atomic energy  EATOM  =     24304.10294433
  ---------------------------------------------------
  free energy    TOTEN  =       -91.24997728 eV

  energy without entropy =      -91.24575900  energy(sigma->0) =      -91.24857118


--------------------------------------------------------------------------------------------------------




--------------------------------------- Iteration      1(  10)  ---------------------------------------


    POTLOK:  cpu time      0.0215: real time      0.0217
    SETDIJ:  cpu time      0.0079: real time      0.0079
    TRIAL :  cpu time      2.6791: real time      2.7054
    CORREC:  cpu time      1.0928: real time      1.1041
    CHARGE:  cpu time      0.1570: real time      0.1580
    --------------------------------------------
      LOOP:  cpu time      3.9752: real time      4.0202

 eigenvalue-minimisations  :     0
 total energy-change (2. order) :-0.1649861E+00  (-0.6308849E+00)
 number of electron     155.9999764 magnetization      21.7859483
 augmentation part       84.5945105 magnetization      16.4058121

 Free energy of the ion-electron system (eV)
  ---------------------------------------------------
  alpha Z        PSCENC =      1173.72503148
  Ewald energy   TEWEN  =    -18538.71255820
  -Hartree energ DENC   =     -5388.17208031
  -exchange      EXHF   =         0.00000000
  -V(xc)+E(xc)   XCENC  =       644.19136245
  PAW double counting   =     22708.01916647   -23485.26652192
  entropy T*S    EENTRO =         0.00413836
  eigenvalues    EBANDS =     -1509.29808936
  atomic energy  EATOM  =     24304.10294433
  ---------------------------------------------------
  free energy    TOTEN  =       -91.41496334 eV

  energy without entropy =      -91.41910170  energy(sigma->0) =      -91.41634279


--------------------------------------------------------------------------------------------------------




--------------------------------------- Iteration      1(  11)  ---------------------------------------


    POTLOK:  cpu time      0.0216: real time      0.0218
    SETDIJ:  cpu time      0.0078: real time      0.0078
    TRIAL :  cpu time      2.7367: real time      2.7632
    CORREC:  cpu time      1.0924: real time      1.1034
    CHARGE:  cpu time      0.1579: real time      0.1587
    --------------------------------------------
      LOOP:  cpu time      4.0319: real time      4.0779

 eigenvalue-minimisations  :     0
 total energy-change (2. order) :-0.6331138E+00  (-0.2413145E+00)
 number of electron     155.9999765 magnetization      21.9603683
 augmentation part       84.6346560 magnetization      16.5500459

 Free energy of the ion-electron system (eV)
  ---------------------------------------------------
  alpha Z        PSCENC =      1173.72503148
  Ewald energy   TEWEN  =    -18538.71255820
  -Hartree energ DENC   =     -5400.31542490
  -exchange      EXHF   =         0.00000000
  -V(xc)+E(xc)   XCENC  =       644.91466929
  PAW double counting   =     22697.10916307   -23463.17610742
  entropy T*S    EENTRO =         0.01102167
  eigenvalues    EBANDS =     -1509.69993308
  atomic energy  EATOM  =     24304.10294433
  ---------------------------------------------------
  free energy    TOTEN  =       -92.04807709 eV

  energy without entropy =      -92.05909876  energy(sigma->0) =      -92.05175098


--------------------------------------------------------------------------------------------------------




--------------------------------------- Iteration      1(  12)  ---------------------------------------


    POTLOK:  cpu time      0.0215: real time      0.0217
    SETDIJ:  cpu time      0.0077: real time      0.0078
    TRIAL :  cpu time      2.7284: real time      2.7553
    CORREC:  cpu time      1.1373: real time      1.1492
    CHARGE:  cpu time      0.1588: real time      0.1596
    --------------------------------------------
      LOOP:  cpu time      4.0705: real time      4.1163

 eigenvalue-minimisations  :     0
 total energy-change (2. order) :-0.3736338E+00  (-0.2253501E+00)
 number of electron     155.9999765 magnetization      21.9785504
 augmentation part       84.6500767 magnetization      16.5658829

 Free energy of the ion-electron system (eV)
  ---------------------------------------------------
  alpha Z        PSCENC =      1173.72503148
  Ewald energy   TEWEN  =    -18538.71255820
  -Hartree energ DENC   =     -5405.41376946
  -exchange      EXHF   =         0.00000000
  -V(xc)+E(xc)   XCENC  =       645.21675830
  PAW double counting   =     22699.24469010   -23461.70844499
  entropy T*S    EENTRO =         0.01168535
  eigenvalues    EBANDS =     -1508.88738413
  atomic energy  EATOM  =     24304.10294433
  ---------------------------------------------------
  free energy    TOTEN  =       -92.42171091 eV

  energy without entropy =      -92.43339626  energy(sigma->0) =      -92.42560602


--------------------------------------------------------------------------------------------------------




--------------------------------------- Iteration      1(  13)  ---------------------------------------


    POTLOK:  cpu time      0.0220: real time      0.0222
    SETDIJ:  cpu time      0.0080: real time      0.0081
    TRIAL :  cpu time      2.6684: real time      2.6945
    CORREC:  cpu time      1.1681: real time      1.1801
    CHARGE:  cpu time      0.1548: real time      0.1556
    --------------------------------------------
      LOOP:  cpu time      4.0432: real time      4.0826

 eigenvalue-minimisations  :     0
 total energy-change (2. order) :-0.2257138E+00  (-0.1344062E+00)
 number of electron     155.9999764 magnetization      22.1289037
 augmentation part       84.7769447 magnetization      16.7009074

 Free energy of the ion-electron system (eV)
  ---------------------------------------------------
  alpha Z        PSCENC =      1173.72503148
  Ewald energy   TEWEN  =    -18538.71255820
  -Hartree energ DENC   =     -5407.76243290
  -exchange      EXHF   =         0.00000000
  -V(xc)+E(xc)   XCENC  =       645.32223630
  PAW double counting   =     22700.77171059   -23463.70732598
  entropy T*S    EENTRO =         0.01026386
  eigenvalues    EBANDS =     -1506.39871571
  atomic energy  EATOM  =     24304.10294433
  ---------------------------------------------------
  free energy    TOTEN  =       -92.64742475 eV

  energy without entropy =      -92.65768862  energy(sigma->0) =      -92.65084604


--------------------------------------------------------------------------------------------------------




--------------------------------------- Iteration      1(  14)  ---------------------------------------


    POTLOK:  cpu time      0.0218: real time      0.0220
    SETDIJ:  cpu time      0.0075: real time      0.0076
    TRIAL :  cpu time      2.6653: real time      2.6921
    CORREC:  cpu time      1.0987: real time      1.1109
    CHARGE:  cpu time      0.1588: real time      0.1597
    --------------------------------------------
      LOOP:  cpu time      3.9676: real time      4.0149

 eigenvalue-minimisations  :     0
 total energy-change (2. order) :-0.1344706E+00  (-0.7067445E-01)
 number of electron     155.9999764 magnetization      22.3089369
 augmentation part       84.8169758 magnetization      16.8496609

 Free energy of the ion-electron system (eV)
  ---------------------------------------------------
  alpha Z        PSCENC =      1173.72503148
  Ewald energy   TEWEN  =    -18538.71255820
  -Hartree energ DENC   =     -5428.03975054
  -exchange      EXHF   =         0.00000000
  -V(xc)+E(xc)   XCENC  =       646.19329275
  PAW double counting   =     22713.15472977   -23479.85732612
  entropy T*S    EENTRO =         0.01077954
  eigenvalues    EBANDS =     -1483.35852267
  atomic energy  EATOM  =     24304.10294433
  ---------------------------------------------------
  free energy    TOTEN  =       -92.78189535 eV

  energy without entropy =      -92.79267489  energy(sigma->0) =      -92.78548853


--------------------------------------------------------------------------------------------------------




--------------------------------------- Iteration      1(  15)  ---------------------------------------


    POTLOK:  cpu time      0.0215: real time      0.0217
    SETDIJ:  cpu time      0.0077: real time      0.0077
    TRIAL :  cpu time      2.6648: real time      2.6911
    CORREC:  cpu time      1.0946: real time      1.1061
    CHARGE:  cpu time      0.1584: real time      0.1592
    --------------------------------------------
      LOOP:  cpu time      3.9653: real time      4.0092

 eigenvalue-minimisations  :     0
 total energy-change (2. order) :-0.7033948E-01  (-0.4502982E-01)
 number of electron     155.9999765 magnetization      22.5320392
 augmentation part       84.7997431 magnetization      17.0307584

 Free energy of the ion-electron system (eV)
  ---------------------------------------------------
  alpha Z        PSCENC =      1173.72503148
  Ewald energy   TEWEN  =    -18538.71255820
  -Hartree energ DENC   =     -5431.96811419
  -exchange      EXHF   =         0.00000000
  -V(xc)+E(xc)   XCENC  =       646.47278379
  PAW double counting   =     22702.38760195   -23469.44376147
  entropy T*S    EENTRO =         0.01249308
  eigenvalues    EBANDS =     -1479.42694205
  atomic energy  EATOM  =     24304.10294433
  ---------------------------------------------------
  free energy    TOTEN  =       -92.85223484 eV

  energy without entropy =      -92.86472791  energy(sigma->0) =      -92.85639920


--------------------------------------------------------------------------------------------------------




--------------------------------------- Iteration      1(  16)  ---------------------------------------


    POTLOK:  cpu time      0.0217: real time      0.0219
    SETDIJ:  cpu time      0.0068: real time      0.0069
    TRIAL :  cpu time      2.7660: real time      2.7925
    CORREC:  cpu time      1.0973: real time      1.1090
    CHARGE:  cpu time      0.1549: real time      0.1559
    --------------------------------------------
      LOOP:  cpu time      4.0631: real time      4.1092

 eigenvalue-minimisations  :     0
 total energy-change (2. order) :-0.4475382E-01  (-0.3127961E-01)
 number of electron     155.9999765 magnetization      22.7080600
 augmentation part       84.7913376 magnetization      17.1780632

 Free energy of the ion-electron system (eV)
  ---------------------------------------------------
  alpha Z        PSCENC =      1173.72503148
  Ewald energy   TEWEN  =    -18538.71255820
  -Hartree energ DENC   =     -5424.78953048
  -exchange      EXHF   =         0.00000000
  -V(xc)+E(xc)   XCENC  =       646.37346754
  PAW double counting   =     22679.99871915   -23444.89769199
  entropy T*S    EENTRO =         0.01431162
  eigenvalues    EBANDS =     -1488.70986355
  atomic energy  EATOM  =     24304.10294433
  ---------------------------------------------------
  free energy    TOTEN  =       -92.89698866 eV

  energy without entropy =      -92.91130028  energy(sigma->0) =      -92.90175920


--------------------------------------------------------------------------------------------------------




--------------------------------------- Iteration      1(  17)  ---------------------------------------


    POTLOK:  cpu time      0.0216: real time      0.0218
    SETDIJ:  cpu time      0.0075: real time      0.0075
    TRIAL :  cpu time      2.6676: real time      2.6954
    CORREC:  cpu time      1.1025: real time      1.1147
    CHARGE:  cpu time      0.1570: real time      0.1580
    --------------------------------------------
      LOOP:  cpu time      3.9792: real time      4.0208

 eigenvalue-minimisations  :     0
 total energy-change (2. order) :-0.2961281E-01  (-0.2250708E-01)
 number of electron     155.9999765 magnetization      22.9030712
[...]
     61       9.9520      1.00000
     62       9.9527      1.00000
     63      10.3566      1.01511
     64      10.3870      1.02177
     65      10.3933      1.02318
     66      10.4147      1.02782
     67      10.4962      1.03180
     68      10.5267      1.01629
     69      10.5429      1.00188
     70      10.7995      0.16885
     71      10.7997      0.16798
     72      10.8340      0.07733
     73      10.8343      0.07682
     74      11.0343     -0.02273
     75      11.0344     -0.02266
     76      11.9281     -0.00000
     77      11.9282     -0.00000
     78      12.0845     -0.00000
     79      12.0849     -0.00000
     80      12.1230     -0.00000
     81      12.1232     -0.00000
     82      12.3383     -0.00000
     83      12.3393     -0.00000
     84      12.6115     -0.00000
     85      12.6565     -0.00000
     86      12.8105     -0.00000
     87      12.8233     -0.00000
     88      12.8755     -0.00000
     89      12.9001     -0.00000
     90      12.9590     -0.00000
     91      12.9656     -0.00000
     92      13.4577     -0.00000
     93      13.4595     -0.00000
     94      13.9344     -0.00000
     95      13.9358     -0.00000
     96      13.9367     -0.00000
     97      13.9388     -0.00000
     98      14.4902     -0.00000
     99      14.4913     -0.00000
    100      17.1332      0.00000
    101      19.1589      0.00000
    102      19.2275      0.00000
    103      19.2733      0.00000
    104      20.0727      0.00000
    105      20.0740      0.00000
    106      20.7917      0.00000
    107      20.7932      0.00000
    108      21.3384      0.00000
    109      21.3387      0.00000
    110      21.8526      0.00000
    111      21.8530      0.00000
    112      26.3092      0.00000
    113      26.3114      0.00000
    114      26.7457      0.00000
    115      26.7464      0.00000
    116      27.1359      0.00000
    117      27.1375      0.00000
    118      28.0557      0.00000
    119      28.0574      0.00000
    120      28.6387      0.00000
    121      28.6430      0.00000
    122      28.6904      0.00000
    123      29.1731      0.00000
    124      30.4347      0.00000
    125      30.4357      0.00000
    126      30.8384      0.00000
    127      30.8398      0.00000
    128      31.6521      0.00000


--------------------------------------------------------------------------------------------------------


 soft charge-density along one line, spin component           1
         0         1         2         3         4         5         6         7         8         9
 total charge-density along one line
 
 soft charge-density along one line, spin component           2
         0         1         2         3         4         5         6         7         8         9
 total charge-density along one line
 
 pseudopotential strength for first ion, spin component:           1
-44.283  -0.000   0.000   7.332   0.000  -0.000  -0.000   0.000
 -0.000 -44.284  -0.000   0.000   7.332   0.000  -0.000   0.000
  0.000  -0.000 -44.170  -0.000   0.000   7.286   0.000  -0.000
  7.332   0.000  -0.000   5.699   0.000  -0.000   0.000  -0.000
  0.000   7.332   0.000   0.000   5.698   0.000   0.000  -0.000
 -0.000   0.000   7.286  -0.000   0.000   5.707  -0.000   0.000
 -0.000  -0.000   0.000   0.000   0.000  -0.000  -1.479  -0.000
  0.000   0.000  -0.000  -0.000  -0.000   0.000  -0.000  -1.564
 -0.000   0.000  -0.000   0.000  -0.000  -0.000  -0.000  -0.000
 -0.000  -0.000   0.000   0.000   0.000  -0.000  -0.000   0.000
 -0.000  -0.000  -0.000   0.000   0.000   0.000  -0.000   0.000
 -0.000  -0.000   0.000   0.000   0.000  -0.000  -2.002  -0.000
  0.000   0.000  -0.000  -0.000  -0.000   0.000  -0.000  -2.086
 -0.000   0.000   0.000   0.000  -0.000  -0.000  -0.000  -0.000
 -0.000  -0.000   0.000   0.000   0.000  -0.000  -0.000   0.000
 -0.000  -0.000   0.000   0.000   0.000   0.000  -0.000   0.000
 -0.000  -0.000   0.000  -0.000  -0.000   0.000  -0.000   0.000
 -0.000  -0.000   0.000  -0.000  -0.000   0.000  -0.000   0.000
 pseudopotential strength for first ion, spin component:           2
-42.067  -0.000   0.000   6.397   0.000  -0.000   0.000   0.000
 -0.000 -42.068  -0.000   0.000   6.397   0.000  -0.000   0.000
  0.000  -0.000 -41.985  -0.000   0.000   6.363   0.000  -0.000
  6.397   0.000  -0.000   5.957   0.000  -0.000   0.000  -0.000
  0.000   6.397   0.000   0.000   5.957   0.000   0.000  -0.000
 -0.000   0.000   6.363  -0.000   0.000   5.964  -0.000   0.000
  0.000  -0.000   0.000   0.000   0.000  -0.000   0.280  -0.000
  0.000   0.000  -0.000  -0.000  -0.000   0.000  -0.000   0.226
 -0.000  -0.000   0.000   0.000  -0.000  -0.000  -0.000  -0.000
 -0.000  -0.000  -0.000   0.000   0.000  -0.000  -0.000  -0.000
 -0.000  -0.000  -0.000   0.000   0.000   0.000  -0.000   0.000
 -0.000  -0.000   0.000  -0.000   0.000  -0.000  -0.272  -0.000
  0.000   0.000  -0.000  -0.000  -0.000   0.000  -0.000  -0.325
 -0.000  -0.000   0.000   0.000  -0.000  -0.000  -0.000  -0.000
 -0.000  -0.000  -0.000   0.000  -0.000  -0.000  -0.000  -0.000
 -0.000  -0.000  -0.000   0.000   0.000   0.000  -0.000   0.000
 -0.000  -0.000  -0.000  -0.000  -0.000  -0.000  -0.000   0.000
 -0.000  -0.000   0.000  -0.000  -0.000  -0.000  -0.000   0.000
 total augmentation occupancy for first ion, spin component:           1
  1.992   0.000   0.000  -0.024  -0.000  -0.000   0.000   0.000   0.000   0.000   0.000   0.000  -0.000   0.000   0.000   0.000
  0.000   1.992   0.000  -0.000  -0.024   0.000   0.000  -0.000   0.000  -0.000  -0.000   0.000   0.000  -0.000  -0.000   0.000
  0.000   0.000   1.992   0.000   0.000  -0.024   0.000  -0.000   0.000   0.000   0.000   0.000  -0.000   0.000  -0.000   0.000
 -0.024  -0.000   0.000   0.204   0.000   0.000   0.000   0.000   0.000   0.000   0.000   0.000  -0.001  -0.000   0.000   0.000
 -0.000  -0.024   0.000   0.000   0.204   0.000   0.000   0.000   0.000   0.000  -0.000   0.000  -0.000  -0.000  -0.000   0.000
 -0.000   0.000  -0.024   0.000   0.000   0.182   0.000  -0.000  -0.000   0.000   0.000   0.000  -0.000  -0.000  -0.000   0.000
  0.000   0.000   0.000   0.000   0.000   0.000   3.074  -0.000   0.000   0.000   0.000  -1.873   0.000   0.000   0.000  -0.000
  0.000  -0.000  -0.000   0.000   0.000  -0.000  -0.000   3.286   0.000   0.000  -0.000  -0.000  -2.413   0.000   0.000   0.000
  0.000   0.000   0.000   0.000   0.000  -0.000   0.000   0.000   3.521   0.000   0.166  -0.000  -0.000  -2.197   0.000  -0.085
  0.000  -0.000   0.000   0.000   0.000   0.000   0.000   0.000   0.000   3.078   0.000   0.000   0.000  -0.000  -1.876   0.000
  0.000  -0.000   0.000   0.000  -0.000   0.000   0.000  -0.000   0.166   0.000   3.335  -0.000  -0.000  -0.085  -0.000  -2.102
  0.000   0.000   0.000   0.000   0.000   0.000  -1.873  -0.000  -0.000   0.000  -0.000   2.088   0.000   0.000   0.000   0.000
 -0.000   0.000  -0.000  -0.001  -0.000  -0.000   0.000  -2.413  -0.000   0.000  -0.000   0.000   2.830  -0.000   0.000   0.000
  0.000  -0.000   0.000  -0.000  -0.000  -0.000   0.000   0.000  -2.197  -0.000  -0.085   0.000  -0.000   2.151   0.000   0.013
  0.000  -0.000  -0.000   0.000  -0.000  -0.000   0.000   0.000   0.000  -1.876  -0.000   0.000   0.000   0.000   2.090  -0.000
  0.000   0.000   0.000   0.000   0.000   0.000  -0.000   0.000  -0.085   0.000  -2.102   0.000   0.000   0.013  -0.000   2.138
  0.000   0.000   0.000   0.000  -0.000   0.000   0.000   0.000  -0.121  -0.000   0.207  -0.000   0.000   0.092  -0.000  -0.158
 -0.000  -0.000   0.000  -0.000   0.000   0.000   0.000  -0.000   0.008  -0.000  -0.013  -0.000  -0.000  -0.005  -0.000   0.009
 total augmentation occupancy for first ion, spin component:           2
 -0.002   0.000   0.000  -0.009  -0.000  -0.000   0.000  -0.000  -0.000   0.000   0.000   0.000   0.000  -0.000   0.000   0.000
  0.000  -0.002   0.000   0.000  -0.009   0.000   0.000   0.000   0.000   0.000   0.000   0.000  -0.000   0.000   0.000  -0.000
  0.000   0.000  -0.002   0.000   0.000  -0.010   0.000   0.000  -0.000  -0.000   0.000   0.000   0.000   0.000   0.000   0.000
 -0.009   0.000   0.000  -0.005   0.000   0.000   0.000   0.000  -0.000  -0.000  -0.000   0.000  -0.000  -0.000   0.000   0.000
 -0.000  -0.009   0.000   0.000  -0.005   0.000  -0.000   0.000   0.000  -0.000  -0.000   0.000   0.000  -0.000  -0.000   0.000
 -0.000   0.000  -0.010   0.000   0.000  -0.010   0.000   0.000   0.000   0.000  -0.000   0.000  -0.000  -0.000  -0.000  -0.000
  0.000   0.000   0.000   0.000  -0.000   0.000   2.377   0.000   0.000  -0.000  -0.000  -1.048   0.000  -0.000  -0.000   0.000
 -0.000   0.000   0.000   0.000   0.000   0.000   0.000   2.145  -0.000   0.000   0.000   0.000  -0.811   0.000   0.000   0.000
 -0.000   0.000  -0.000  -0.000   0.000   0.000   0.000  -0.000   2.682  -0.000   0.085   0.000  -0.000  -1.134  -0.000  -0.090
  0.000   0.000  -0.000  -0.000  -0.000   0.000  -0.000   0.000  -0.000   2.379  -0.000  -0.000   0.000  -0.000  -1.049  -0.000
  0.000   0.000   0.000  -0.000  -0.000  -0.000  -0.000   0.000   0.085  -0.000   2.590  -0.000   0.000  -0.090  -0.000  -1.033
  0.000   0.000   0.000   0.000   0.000   0.000  -1.048   0.000   0.000  -0.000  -0.000   0.252   0.000   0.000   0.000  -0.000
  0.000  -0.000   0.000  -0.000   0.000  -0.000   0.000  -0.811  -0.000   0.000   0.000   0.000   0.031  -0.000   0.000   0.000
 -0.000   0.000   0.000  -0.000  -0.000  -0.000  -0.000   0.000  -1.134  -0.000  -0.090   0.000  -0.000   0.327   0.000   0.104
  0.000   0.000   0.000   0.000  -0.000  -0.000  -0.000   0.000  -0.000  -1.049  -0.000   0.000   0.000   0.000   0.252   0.000
  0.000  -0.000   0.000   0.000   0.000  -0.000   0.000   0.000  -0.090  -0.000  -1.033  -0.000   0.000   0.104   0.000   0.209
  0.000  -0.000   0.000   0.000  -0.000   0.000   0.000   0.000  -0.031   0.000   0.052   0.000   0.000   0.031  -0.000  -0.053
  0.000   0.000   0.000  -0.000  -0.000   0.000   0.000  -0.000   0.003  -0.000  -0.005   0.000   0.000  -0.001   0.000   0.001


------------------------ aborting loop because EDIFF is reached ----------------------------------------





 total charge

# of ion       s       p       d       tot
------------------------------------------
    1        0.368   6.369   6.076  12.814
    2        0.368   6.369   6.075  12.813
    3        0.368   6.369   6.076  12.814
    4        0.369   6.370   6.076  12.814
    5        0.369   6.369   6.075  12.814
    6        0.369   6.369   6.075  12.814
    7        0.368   6.369   6.076  12.814
    8        0.368   6.369   6.075  12.813
    9        0.368   6.369   6.076  12.814
   10        0.802   0.792   8.072   9.666
   11        0.801   0.792   8.072   9.665
   12        0.801   0.792   8.072   9.665
--------------------------------------------------
tot          5.721  59.700  78.896 144.317



 magnetization (x)

# of ion       s       p       d       tot
------------------------------------------
    1       -0.003  -0.015   2.585   2.566
    2       -0.003  -0.015   2.586   2.567
    3       -0.003  -0.015   2.585   2.566
    4       -0.003  -0.015   2.582   2.564
    5       -0.003  -0.015   2.584   2.566
    6       -0.003  -0.015   2.584   2.566
    7       -0.003  -0.015   2.585   2.566
    8       -0.003  -0.015   2.586   2.567
    9       -0.003  -0.015   2.585   2.566
   10       -0.039  -0.099   0.410   0.271
   11       -0.039  -0.099   0.410   0.271
   12       -0.039  -0.099   0.410   0.271
--------------------------------------------------
tot         -0.146  -0.435  24.491  23.909
 
    FORLOC:  cpu time      0.0013: real time      0.0013
    FORNL :  cpu time      0.6801: real time      0.6841
    STRESS:  cpu time      4.1367: real time      4.1692
    FORCOR:  cpu time      0.0209: real time      0.0210
    OFIELD:  cpu time      0.0001: real time      0.0001

  FORCE on cell =-STRESS in cart. coord.  units (eV):
  Direction    XX          YY          ZZ          XY          YZ          ZX
  --------------------------------------------------------------------------------------
  Alpha Z  1173.72503  1173.72503  1173.72503
  Ewald   -6179.23392 -6179.23392 -6180.26392    -0.00000    -0.00000     0.00000
  Hartree  1810.93656  1810.93656  1810.25275    -0.00000    -0.00000    -0.00000
  E(xc)    -946.96993  -946.96993  -946.96901    -0.00000    -0.00000     0.00000
  Local    1214.67539  1214.67539  1216.53223     0.00000    -0.00000     0.00000
  n-local  -198.91089  -212.63943  -205.88913    16.12390    -0.08314    -0.06845
  augment  1436.40544  1436.40544  1436.35375     0.00000    -0.00000    -0.00000
  Kinetic  1714.80696  1705.37010  1710.00621     0.75078     0.36438     0.70539
  Fock        0.00000     0.00000     0.00000     0.00000     0.00000     0.00000
  -------------------------------------------------------------------------------------
  Total      13.85195    13.85195    13.74791     0.00000     0.00000     0.00000
  in kB     153.05713   153.05713   151.90756     0.00000     0.00000     0.00000
  external pressure =      152.67 kB  Pullay stress =        0.00 kB


 VOLUME and BASIS-vectors are now :
 -----------------------------------------------------------------------------
  energy-cutoff  :      520.00
  volume of cell :      145.00
      direct lattice vectors                 reciprocal lattice vectors
     3.641528692  0.000000000  0.000000000     0.274609947  0.000000000  0.000000000
     0.000000000  3.641528692  0.000000000     0.000000000  0.274609947  0.000000000
     0.000000000  0.000000000 10.934540307     0.000000000  0.000000000  0.091453319

  length of vectors
     3.641528692  3.641528692 10.934540307     0.274609947  0.274609947  0.091453319


 FORCES acting on ions:
    Electron-Ion                     Ewald-Force                    Non-Local-Force
 -----------------------------------------------------------------------------------------------
   -.693E-13 0.102E-11 -.151E+01   -.318E-14 -.226E-13 0.152E+01   -.330E-21 0.640E-21 0.373E-02
   -.695E-13 0.106E-11 0.299E-11   -.233E-13 -.269E-13 0.568E-13   -.193E-23 0.248E-23 -.253E-22
   -.695E-13 0.780E-12 0.151E+01   0.553E-14 0.388E-14 -.152E+01   0.492E-22 -.884E-21 -.373E-02
   0.988E-12 0.781E-11 0.492E-11   -.265E-13 -.272E-14 0.000E+00   0.571E-23 -.763E-23 -.198E-22
   0.985E-12 -.441E-11 -.147E+01   0.373E-13 0.354E-13 0.147E+01   0.102E-20 -.103E-20 0.870E-02
   0.984E-12 -.506E-11 0.147E+01   0.583E-13 -.292E-13 -.147E+01   0.114E-21 0.783E-21 -.870E-02
   0.953E-12 -.682E-13 -.151E+01   -.216E-13 0.885E-14 0.152E+01   0.139E-20 0.769E-21 0.373E-02
   0.951E-12 -.662E-13 0.569E-11   -.284E-14 0.131E-13 0.568E-13   -.225E-23 -.469E-23 -.291E-22
   0.954E-12 -.641E-13 0.151E+01   -.451E-14 0.781E-14 -.152E+01   0.522E-21 0.185E-21 -.373E-02
   -.597E-13 -.473E-13 -.998E-13   0.674E-14 -.262E-13 0.000E+00   -.312E-23 -.993E-23 -.646E-24
   -.596E-13 -.483E-13 -.727E+00   -.312E-13 -.756E-13 0.725E+00   0.214E-21 -.183E-20 -.155E-02
   -.592E-13 -.461E-13 0.727E+00   -.284E-13 0.833E-13 -.725E+00   -.454E-21 0.142E-20 0.155E-02
 -----------------------------------------------------------------------------------------------
   0.545E-11 0.862E-12 0.322E-10   -.336E-13 -.309E-13 0.157E-12   0.253E-20 0.407E-22 -.152E-17
 
 
 POSITION                                       TOTAL-FORCE (eV/Angst)
 -----------------------------------------------------------------------------------
      0.00000      1.82076      1.82182        -0.000000     -0.000000      0.007257
      0.00000      1.82076      5.46727        -0.000000     -0.000000     -0.000000
      0.00000      1.82076      9.11272        -0.000000     -0.000000     -0.007257
      1.82076      1.82076      0.00000         0.000000     -0.000000     -0.000000
      1.82076      1.82076      3.64406        -0.000000      0.000000      0.004149
      1.82076      1.82076      7.29048         0.000000      0.000000     -0.004149
      1.82076      0.00000      1.82182        -0.000000     -0.000000      0.007257
      1.82076      0.00000      5.46727         0.000000     -0.000000     -0.000000
      1.82076      0.00000      9.11272         0.000000     -0.000000     -0.007257
      0.00000      0.00000      0.00000        -0.000000     -0.000000     -0.000000
      0.00000      0.00000      3.64475        -0.000000     -0.000000     -0.002592
      0.00000      0.00000      7.28979        -0.000000     -0.000000      0.002592
 -----------------------------------------------------------------------------------
    total drift:                                0.000000      0.000000      0.000000


--------------------------------------------------------------------------------------------------------



  FREE ENERGIE OF THE ION-ELECTRON SYSTEM (eV)
  ---------------------------------------------------
  free  energy   TOTEN  =       -93.00668667 eV

  energy  without entropy=      -93.02754582  energy(sigma->0) =      -93.01363972
 


--------------------------------------------------------------------------------------------------------


    POTLOK:  cpu time      0.0366: real time      0.0369


--------------------------------------------------------------------------------------------------------




--------------------------------------------------------------------------------------------------------


  
 reached required accuracy - stopping structural energy minimisation
     LOOP+:  cpu time    182.1161: real time    184.0611
    4ORBIT:  cpu time      0.0000: real time      0.0000



 total charge

# of ion       s       p       d       tot
------------------------------------------
    1        0.368   6.369   6.076  12.814
    2        0.368   6.369   6.075  12.813
    3        0.368   6.369   6.076  12.814
    4        0.369   6.370   6.076  12.814
    5        0.369   6.369   6.075  12.814
    6        0.369   6.369   6.075  12.814
    7        0.368   6.369   6.076  12.814
    8        0.368   6.369   6.075  12.813
    9        0.368   6.369   6.076  12.814
   10        0.802   0.792   8.072   9.666
   11        0.801   0.792   8.072   9.665
   12        0.801   0.792   8.072   9.665
--------------------------------------------------
tot          5.721  59.700  78.896 144.317



 magnetization (x)

# of ion       s       p       d       tot
------------------------------------------
    1       -0.003  -0.015   2.585   2.566
    2       -0.003  -0.015   2.586   2.567
    3       -0.003  -0.015   2.585   2.566
    4       -0.003  -0.015   2.582   2.564
    5       -0.003  -0.015   2.584   2.566
    6       -0.003  -0.015   2.584   2.566
    7       -0.003  -0.015   2.585   2.566
    8       -0.003  -0.015   2.586   2.567
    9       -0.003  -0.015   2.585   2.566
   10       -0.039  -0.099   0.410   0.271
   11       -0.039  -0.099   0.410   0.271
   12       -0.039  -0.099   0.410   0.271
--------------------------------------------------
tot         -0.146  -0.435  24.491  23.909
 

 total amount of memory used by VASP MPI-rank0   270045. kBytes
=======================================================================

   base      :      30000. kBytes
   nonl-proj :      96755. kBytes
   fftplans  :        888. kBytes
   grid      :       6813. kBytes
   one-center:        373. kBytes
   wavefun   :     135216. kBytes
 
  
  
 General timing and accounting informations for this job:
 ========================================================
  
                  Total CPU time used (sec):      200.522
                            User time (sec):      193.772
                          System time (sec):        6.750
                         Elapsed time (sec):      208.535
  
                   Maximum memory used (kb):     1198860.
                   Average memory used (kb):          N/A
  
                          Minor page faults:       198432
                          Major page faults:          220
                 Voluntary context switches:         8806
