 vasp.6.4.3 19Mar24 (build Mar 26 2024 14:05:37) complex                        
  
 executed on             LinuxIFC date 2024.12.16  08:54:59
 running  128 mpi-ranks, on    1 nodes
 distrk:  each k-point on   32 cores,    4 groups
 distr:  one band on NCORE=   1 cores,   32 groups


--------------------------------------------------------------------------------------------------------


 INCAR:
   ALGO = Normal
   EDIFF = 1e-06
   EDIFFG = -0.01
   ENCUT = 520
   GGA = Pe
   IBRION = -1
   ISIF = 4
   ISMEAR = -5
   ISPIN = 2
   KPAR = 4
   LCHARG = True
   LORBIT = 11
   LREAL = False
   LWAVE = False
   MAGMOM = 1*2.566 1*2.567 1*2.566 3*2.565 1*2.566 1*2.567 1*2.566 3*0.271
   NELM = 200
   NSW = 0
   PREC = Accurate
   SIGMA = 0.2

 POTCAR:    PAW_PBE Fe_pv 02Aug2007               
 POTCAR:    PAW_PBE Pt 04Feb2005                  
 -----------------------------------------------------------------------------
|                                                                             |
|           W    W    AA    RRRRR   N    N  II  N    N   GGGG   !!!           |
|           W    W   A  A   R    R  NN   N  II  NN   N  G    G  !!!           |
|           W    W  A    A  R    R  N N  N  II  N N  N  G       !!!           |
|           W WW W  AAAAAA  RRRRR   N  N N  II  N  N N  G  GGG   !            |
|           WW  WW  A    A  R   R   N   NN  II  N   NN  G    G                |
|           W    W  A    A  R    R  N    N  II  N    N   GGGG   !!!           |
|                                                                             |
|     For optimal performance we recommend to set                             |
|       NCORE = 2 up to number-of-cores-per-socket                            |
|     NCORE specifies how many cores store one orbital (NPAR=cpu/NCORE).      |
|     This setting can greatly improve the performance of VASP for DFT.       |
|     The default, NCORE=1 might be grossly inefficient on modern             |
|     multi-core architectures or massively parallel machines. Do your        |
|     own testing! More info at https://www.vasp.at/wiki/index.php/NCORE      |
|     Unfortunately you need to use the default for GW and RPA                |
|     calculations (for HF NCORE is supported but not extensively tested      |
|     yet).                                                                   |
|                                                                             |
 -----------------------------------------------------------------------------

 POTCAR:    PAW_PBE Fe_pv 02Aug2007               
   SHA256 =  5d22e414b1f82158bf2c7ecb8b97b28fd0923e48cadc1c3bf74d524558f5dd32 Fe_pv/POTCAR          
   COPYR  = (c) Copyright 02Aug2007 Georg Kresse                                                    
   COPYR  = This file is part of the software VASP. Any use, copying, and all other rights are regul
   COPYR  = If you do not have a valid VASP license, you may not use, copy or distribute this file. 
   VRHFIN =Fe:  3pd7s1                                                                              
   LEXCH  = PE                                                                                      
   EATOM  =  2457.4239 eV,  180.6156 Ry                                                             
                                                                                                    
   TITEL  = PAW_PBE Fe_pv 02Aug2007                                                                 
   LULTRA =        F    use ultrasoft PP ?                                                          
   IUNSCR =        1    unscreen: 0-lin 1-nonlin 2-no                                               
   RPACOR =    1.750    partial core radius                                                         
   POMASS =   55.847; ZVAL   =   14.000    mass and valenz                                          
   RCORE  =    2.200    outmost cutoff radius                                                       
   RWIGS  =    2.200; RWIGS  =    1.164    wigner-seitz radius (au A)                               
   ENMAX  =  293.238; ENMIN  =  219.928 eV                                                          
   ICORE  =        3    local potential                                                             
   LCOR   =        T    correct aug charges                                                         
   LPAW   =        T    paw PP                                                                      
   EAUG   =  578.342                                                                                
   DEXC   =    0.000                                                                                
   RMAX   =    2.249    core radius for proj-oper                                                   
   RAUG   =    1.300    factor for augmentation sphere                                              
   RDEP   =    2.296    radius for radial grids                                                     
   RDEPT  =    1.766    core radius for aug-charge                                                  
                                                                                                    
   Atomic configuration                                                                             
    8 entries                                                                                       
     n  l   j            E        occ.                                                              
     1  0  0.50     -6993.8440   2.0000                                                             
     2  0  0.50      -814.6047   2.0000                                                             
     2  1  1.50      -693.3689   6.0000                                                             
     3  0  0.50       -89.4732   2.0000                                                             
     3  1  1.50       -55.6373   6.0000                                                             
     3  2  2.50        -3.8151   7.0000                                                             
     4  0  0.50        -4.2551   1.0000                                                             
     4  3  2.50        -1.3606   0.0000                                                             
   Description                                                                                      
     l       E           TYP  RCUT    TYP  RCUT                                                     
     1    -55.6372668     23  2.000                                                                 
     1     -5.4423304     23  2.000                                                                 
     2     -3.8151096     23  2.200                                                                 
     2     -5.1756922     23  2.200                                                                 
     0     -4.2550951     23  2.200                                                                 
     0     27.2116520     23  2.200                                                                 
     3     -1.3605826     23  2.200                                                                 
  local pseudopotential read in
  partial core-charges read in
  partial kinetic energy density read in
  atomic valenz-charges read in
  non local Contribution for L=           1  read in
    real space projection operators read in
  non local Contribution for L=           1  read in
    real space projection operators read in
  non local Contribution for L=           2  read in
    real space projection operators read in
  non local Contribution for L=           2  read in
    real space projection operators read in
  non local Contribution for L=           0  read in
    real space projection operators read in
  non local Contribution for L=           0  read in
    real space projection operators read in
    PAW grid and wavefunctions read in
 
   number of l-projection  operators is LMAX  =           6
   number of lm-projection operators is LMMAX =          18
 
 POTCAR:    PAW_PBE Pt 04Feb2005                  
   SHA256 =  3ed90460adef76debcff1cfb73ee1349b515b1a3db03439735b44de3a8db7dc8 Pt/POTCAR             
   COPYR  = (c) Copyright 04Feb2005 Georg Kresse                                                    
   COPYR  = This file is part of the software VASP. Any use, copying, and all other rights are regul
   COPYR  = If you do not have a valid VASP license, you may not use, copy or distribute this file. 
   VRHFIN =Pt: s1d9                                                                                 
   LEXCH  = PE                                                                                      
   EATOM  =   729.1176 eV,   53.5886 Ry                                                             
                                                                                                    
   TITEL  = PAW_PBE Pt 04Feb2005                                                                    
   LULTRA =        F    use ultrasoft PP ?                                                          
   IUNSCR =        1    unscreen: 0-lin 1-nonlin 2-no                                               
   RPACOR =    2.330    partial core radius                                                         
   POMASS =  195.080; ZVAL   =   10.000    mass and valenz                                          
   RCORE  =    2.600    outmost cutoff radius                                                       
   RWIGS  =    2.750; RWIGS  =    1.455    wigner-seitz radius (au A)                               
   ENMAX  =  230.283; ENMIN  =  172.712 eV                                                          
   ICORE  =        3    local potential                                                             
   LCOR   =        T    correct aug charges                                                         
   LPAW   =        T    paw PP                                                                      
   EAUG   =  358.966                                                                                
   DEXC   =    0.000                                                                                
   RMAX   =    2.658    core radius for proj-oper                                                   
   RAUG   =    1.300    factor for augmentation sphere                                              
   RDEP   =    2.761    radius for radial grids                                                     
   RDEPT  =    2.203    core radius for aug-charge                                                  
                                                                                                    
   Atomic configuration                                                                             
   16 entries                                                                                       
     n  l   j            E        occ.                                                              
     1  0  0.50    -78401.1885   2.0000                                                             
     2  0  0.50    -13770.7750   2.0000                                                             
     2  1  1.50    -11931.0468   6.0000                                                             
     3  0  0.50     -3234.7234   2.0000                                                             
     3  1  1.50     -2699.2216   6.0000                                                             
     3  2  2.50     -2119.5714  10.0000                                                             
     4  0  0.50      -695.1528   2.0000                                                             
     4  1  1.50      -519.6034   6.0000                                                             
     4  2  2.50      -306.6786  10.0000                                                             
     4  3  3.50       -70.1041  14.0000                                                             
     5  0  0.50      -101.7747   2.0000                                                             
     5  1  1.50       -55.9873   6.0000                                                             
     5  2  2.50        -6.1423   9.0000                                                             
     6  0  0.50        -5.6573   1.0000                                                             
     6  1  1.50        -6.8029   0.0000                                                             
     5  3  2.50        -1.3606   0.0000                                                             
   Description                                                                                      
     l       E           TYP  RCUT    TYP  RCUT                                                     
     2     -6.1423404     23  2.500                                                                 
     2     -7.5029230     23  2.500                                                                 
     0     -5.6573207     23  2.500                                                                 
     0      0.7416693     23  2.500                                                                 
     1     -2.7211652     23  2.600                                                                 
     1     20.4087390     23  2.600                                                                 
     3     -1.3605826     23  2.500                                                                 
  local pseudopotential read in
  partial core-charges read in
  partial kinetic energy density read in
  atomic valenz-charges read in
  non local Contribution for L=           2  read in
    real space projection operators read in
  non local Contribution for L=           2  read in
    real space projection operators read in
  non local Contribution for L=           0  read in
    real space projection operators read in
  non local Contribution for L=           0  read in
    real space projection operators read in
  non local Contribution for L=           1  read in
    real space projection operators read in
  non local Contribution for L=           1  read in
    real space projection operators read in
    PAW grid and wavefunctions read in
 
   number of l-projection  operators is LMAX  =           6
   number of lm-projection operators is LMMAX =          18
 
  PAW_PBE Fe_pv 02Aug2007               :
 energy of atom  1       EATOM=-2457.4239
 kinetic energy error for atom=    0.0062 (will be added to EATOM!!)
  PAW_PBE Pt 04Feb2005                  :
 energy of atom  2       EATOM= -729.1176
 kinetic energy error for atom=    0.0032 (will be added to EATOM!!)
 
 
 POSCAR: Fe9 Pt3
  positions in direct lattice
  velocities in cartesian coordinates


 exchange-correlation table for PE
   RHO(1)=    0.500       N(1)  =     2000
   RHO(2)=  100.500       N(2)  =     4000
 


--------------------------------------------------------------------------------------------------------


 ion  position               nearest neighbor table
   1  0.000  0.500  0.167-   7 2.58   7 2.58   7 2.58   7 2.58   5 2.58   5 2.58  11 2.58  11 2.58
                             4 2.58  10 2.58  10 2.58   4 2.58
   2  0.000  0.500  0.500-   8 2.58   8 2.58   8 2.58   8 2.58  11 2.58  12 2.58  12 2.58  11 2.58
                             5 2.58   6 2.58   5 2.58   6 2.58
   3  0.000  0.500  0.833-   9 2.58   9 2.58   9 2.58   9 2.58   6 2.58   6 2.58  12 2.58  12 2.58
                             4 2.58  10 2.58  10 2.58   4 2.58
   4  0.500  0.500  0.000-  10 2.58  10 2.58  10 2.58  10 2.58   1 2.58   7 2.58   9 2.58   3 2.58
                             1 2.58   3 2.58   7 2.58   9 2.58
   5  0.500  0.500  0.333-  11 2.58  11 2.58  11 2.58  11 2.58   7 2.58   1 2.58   1 2.58   7 2.58
                             8 2.58   2 2.58   8 2.58   2 2.58
   6  0.500  0.500  0.667-  12 2.58  12 2.58  12 2.58  12 2.58   9 2.58   3 2.58   3 2.58   9 2.58
                             2 2.58   8 2.58   2 2.58   8 2.58
   7  0.500  0.000  0.167-   1 2.58   1 2.58   1 2.58   1 2.58   5 2.58   5 2.58  11 2.58  11 2.58
                            10 2.58  10 2.58   4 2.58   4 2.58
   8  0.500  0.000  0.500-   2 2.58   2 2.58   2 2.58   2 2.58  12 2.58  11 2.58  12 2.58  11 2.58
                             6 2.58   5 2.58   5 2.58   6 2.58
   9  0.500  0.000  0.833-   3 2.58   3 2.58   3 2.58   3 2.58   6 2.58   6 2.58  12 2.58  12 2.58
                            10 2.58  10 2.58   4 2.58   4 2.58
  10  0.000  0.000  0.000-   4 2.58   4 2.58   4 2.58   4 2.58   9 2.58   1 2.58   3 2.58   3 2.58
                             1 2.58   7 2.58   9 2.58   7 2.58
  11  0.000  0.000  0.333-   5 2.58   5 2.58   5 2.58   5 2.58   1 2.58   7 2.58   7 2.58   1 2.58
                             2 2.58   2 2.58   8 2.58   8 2.58
  12  0.000  0.000  0.667-   6 2.58   6 2.58   6 2.58   6 2.58   3 2.58   9 2.58   9 2.58   3 2.58
                             2 2.58   8 2.58   8 2.58   2 2.58
 
  LATTYP: Found a simple tetragonal cell.
 ALAT       =     3.6422638251
 C/A-ratio  =     3.0009157362
  
  Lattice vectors:
  
 A1 = (   3.6422638251,   0.0000000000,   0.0000000000)
 A2 = (   0.0000000000,   3.6422638251,   0.0000000000)
 A3 = (   0.0000000000,   0.0000000000,  10.9301268281)


Analysis of symmetry for initial positions (statically):
=====================================================================
 Subroutine PRICEL returns:
 Original cell was already a primitive cell.
 

 Routine SETGRP: Setting up the symmetry group for a 
 simple tetragonal supercell.


 Subroutine GETGRP returns: Found 16 space group operations
 (whereof 16 operations were pure point group operations)
 out of a pool of 16 trial point group operations.


The static configuration has the point symmetry D_4h.


Analysis of symmetry for dynamics (positions and initial velocities):
=====================================================================
 Subroutine PRICEL returns:
 Original cell was already a primitive cell.
 

 Routine SETGRP: Setting up the symmetry group for a 
 simple tetragonal supercell.


 Subroutine GETGRP returns: Found 16 space group operations
 (whereof 16 operations were pure point group operations)
 out of a pool of 16 trial point group operations.


The dynamic configuration has the point symmetry D_4h.


Analysis of structural, dynamic, and magnetic symmetry:
=====================================================================
 Subroutine PRICEL returns:
 Original cell was already a primitive cell.
 

 Routine SETGRP: Setting up the symmetry group for a 
 simple tetragonal supercell.


 Subroutine GETGRP returns: Found 16 space group operations
 (whereof 16 operations were pure point group operations)
 out of a pool of 16 trial point group operations.


The overall configuration has the point symmetry D_4h.


 Subroutine INISYM returns: Found 16 space group operations
 (whereof 16 operations are pure point group operations),
 and found     1 'primitive' translations


----------------------------------------------------------------------------------------

                                     Primitive cell                                     

  volume of cell :     145.0000

  direct lattice vectors                    reciprocal lattice vectors
     3.642263825  0.000000000  0.000000000     0.274554521  0.000000000  0.000000000
     0.000000000  3.642263825  0.000000000     0.000000000  0.274554521  0.000000000
     0.000000000  0.000000000 10.930126828     0.000000000  0.000000000  0.091490247

  length of vectors
     3.642263825  3.642263825 10.930126828     0.274554521  0.274554521  0.091490247

  position of ions in fractional coordinates (direct lattice)
     0.000000000  0.500000000  0.166676517
     0.000000000  0.500000000  0.500000000
     0.000000000  0.500000000  0.833323483
     0.500000000  0.500000000  0.000000000
     0.500000000  0.500000000  0.333293006
     0.500000000  0.500000000  0.666706994
     0.500000000  0.000000000  0.166676517
     0.500000000  0.000000000  0.500000000
     0.500000000  0.000000000  0.833323483
     0.000000000  0.000000000  0.000000000
     0.000000000  0.000000000  0.333309487
     0.000000000  0.000000000  0.666690513

  ion indices of the primitive-cell ions
   primitive index   ion index
                 1           1
                 2           2
                 3           3
                 4           4
                 5           5
                 6           6
                 7           7
                 8           8
                 9           9
                10          10
                11          11
                12          12

----------------------------------------------------------------------------------------

 
 
 KPOINTS: pymatgen with grid density = 8800 / numb

Automatic generation of k-mesh.
 Grid dimensions read from file:
 generate k-points for:   13   13    4

 Generating k-lattice:

  Cartesian coordinates                     Fractional coordinates (reciprocal lattice)
     0.021119579  0.000000000  0.000000000     0.076923077  0.000000000  0.000000000
     0.000000000  0.021119579  0.000000000     0.000000000  0.076923077  0.000000000
     0.000000000  0.000000000  0.022872562     0.000000000  0.000000000  0.250000000

  Length of vectors
     0.021119579  0.021119579  0.022872562

  Shift w.r.t. Gamma in fractional coordinates (k-lattice)
     0.000000000  0.000000000  0.000000000

 TETIRR: Found   1010 inequivalent tetrahedra from     4056
 
 Subroutine IBZKPT returns following result:
 ===========================================
 
 Found     84 irreducible k-points:
 
 Following reciprocal coordinates:
            Coordinates               Weight
  0.000000  0.000000  0.000000      1.000000
  0.076923  0.000000  0.000000      4.000000
  0.153846  0.000000  0.000000      4.000000
  0.230769  0.000000  0.000000      4.000000
  0.307692  0.000000  0.000000      4.000000
  0.384615  0.000000  0.000000      4.000000
  0.461538  0.000000  0.000000      4.000000
  0.076923  0.076923  0.000000      4.000000
  0.153846  0.076923  0.000000      8.000000
  0.230769  0.076923  0.000000      8.000000
  0.307692  0.076923  0.000000      8.000000
  0.384615  0.076923  0.000000      8.000000
  0.461538  0.076923  0.000000      8.000000
  0.153846  0.153846  0.000000      4.000000
  0.230769  0.153846  0.000000      8.000000
  0.307692  0.153846  0.000000      8.000000
  0.384615  0.153846  0.000000      8.000000
  0.461538  0.153846  0.000000      8.000000
  0.230769  0.230769  0.000000      4.000000
  0.307692  0.230769  0.000000      8.000000
  0.384615  0.230769  0.000000      8.000000
  0.461538  0.230769  0.000000      8.000000
  0.307692  0.307692  0.000000      4.000000
  0.384615  0.307692  0.000000      8.000000
  0.461538  0.307692  0.000000      8.000000
  0.384615  0.384615  0.000000      4.000000
  0.461538  0.384615  0.000000      8.000000
  0.461538  0.461538  0.000000      4.000000
  0.000000  0.000000  0.250000      2.000000
  0.076923  0.000000  0.250000      8.000000
  0.153846  0.000000  0.250000      8.000000
  0.230769  0.000000  0.250000      8.000000
  0.307692  0.000000  0.250000      8.000000
  0.384615  0.000000  0.250000      8.000000
  0.461538  0.000000  0.250000      8.000000
  0.076923  0.076923  0.250000      8.000000
  0.153846  0.076923  0.250000     16.000000
  0.230769  0.076923  0.250000     16.000000
  0.307692  0.076923  0.250000     16.000000
  0.384615  0.076923  0.250000     16.000000
  0.461538  0.076923  0.250000     16.000000
  0.153846  0.153846  0.250000      8.000000
  0.230769  0.153846  0.250000     16.000000
  0.307692  0.153846  0.250000     16.000000
  0.384615  0.153846  0.250000     16.000000
  0.461538  0.153846  0.250000     16.000000
  0.230769  0.230769  0.250000      8.000000
  0.307692  0.230769  0.250000     16.000000
  0.384615  0.230769  0.250000     16.000000
  0.461538  0.230769  0.250000     16.000000
  0.307692  0.307692  0.250000      8.000000
  0.384615  0.307692  0.250000     16.000000
  0.461538  0.307692  0.250000     16.000000
  0.384615  0.384615  0.250000      8.000000
  0.461538  0.384615  0.250000     16.000000
  0.461538  0.461538  0.250000      8.000000
  0.000000  0.000000  0.500000      1.000000
  0.076923  0.000000  0.500000      4.000000
  0.153846  0.000000  0.500000      4.000000
  0.230769  0.000000  0.500000      4.000000
  0.307692  0.000000  0.500000      4.000000
  0.384615  0.000000  0.500000      4.000000
  0.461538  0.000000  0.500000      4.000000
  0.076923  0.076923  0.500000      4.000000
  0.153846  0.076923  0.500000      8.000000
  0.230769  0.076923  0.500000      8.000000
  0.307692  0.076923  0.500000      8.000000
  0.384615  0.076923  0.500000      8.000000
  0.461538  0.076923  0.500000      8.000000
  0.153846  0.153846  0.500000      4.000000
  0.230769  0.153846  0.500000      8.000000
  0.307692  0.153846  0.500000      8.000000
  0.384615  0.153846  0.500000      8.000000
  0.461538  0.153846  0.500000      8.000000
  0.230769  0.230769  0.500000      4.000000
  0.307692  0.230769  0.500000      8.000000
  0.384615  0.230769  0.500000      8.000000
  0.461538  0.230769  0.500000      8.000000
  0.307692  0.307692  0.500000      4.000000
  0.384615  0.307692  0.500000      8.000000
  0.461538  0.307692  0.500000      8.000000
  0.384615  0.384615  0.500000      4.000000
  0.461538  0.384615  0.500000      8.000000
  0.461538  0.461538  0.500000      4.000000
 
 Following cartesian coordinates:
            Coordinates               Weight
  0.000000  0.000000  0.000000      1.000000
  0.021120  0.000000  0.000000      4.000000
  0.042239  0.000000  0.000000      4.000000
  0.063359  0.000000  0.000000      4.000000
  0.084478  0.000000  0.000000      4.000000
  0.105598  0.000000  0.000000      4.000000
  0.126717  0.000000  0.000000      4.000000
  0.021120  0.021120  0.000000      4.000000
  0.042239  0.021120  0.000000      8.000000
  0.063359  0.021120  0.000000      8.000000
  0.084478  0.021120  0.000000      8.000000
  0.105598  0.021120  0.000000      8.000000
  0.126717  0.021120  0.000000      8.000000
  0.042239  0.042239  0.000000      4.000000
  0.063359  0.042239  0.000000      8.000000
  0.084478  0.042239  0.000000      8.000000
  0.105598  0.042239  0.000000      8.000000
  0.126717  0.042239  0.000000      8.000000
  0.063359  0.063359  0.000000      4.000000
  0.084478  0.063359  0.000000      8.000000
  0.105598  0.063359  0.000000      8.000000
  0.126717  0.063359  0.000000      8.000000
  0.084478  0.084478  0.000000      4.000000
  0.105598  0.084478  0.000000      8.000000
  0.126717  0.084478  0.000000      8.000000
  0.105598  0.105598  0.000000      4.000000
  0.126717  0.105598  0.000000      8.000000
  0.126717  0.126717  0.000000      4.000000
  0.000000  0.000000  0.022873      2.000000
  0.021120  0.000000  0.022873      8.000000
  0.042239  0.000000  0.022873      8.000000
  0.063359  0.000000  0.022873      8.000000
  0.084478  0.000000  0.022873      8.000000
  0.105598  0.000000  0.022873      8.000000
  0.126717  0.000000  0.022873      8.000000
  0.021120  0.021120  0.022873      8.000000
  0.042239  0.021120  0.022873     16.000000
  0.063359  0.021120  0.022873     16.000000
  0.084478  0.021120  0.022873     16.000000
  0.105598  0.021120  0.022873     16.000000
  0.126717  0.021120  0.022873     16.000000
  0.042239  0.042239  0.022873      8.000000
  0.063359  0.042239  0.022873     16.000000
  0.084478  0.042239  0.022873     16.000000
  0.105598  0.042239  0.022873     16.000000
  0.126717  0.042239  0.022873     16.000000
  0.063359  0.063359  0.022873      8.000000
  0.084478  0.063359  0.022873     16.000000
  0.105598  0.063359  0.022873     16.000000
  0.126717  0.063359  0.022873     16.000000
  0.084478  0.084478  0.022873      8.000000
  0.105598  0.084478  0.022873     16.000000
  0.126717  0.084478  0.022873     16.000000
  0.105598  0.105598  0.022873      8.000000
  0.126717  0.105598  0.022873     16.000000
  0.126717  0.126717  0.022873      8.000000
  0.000000  0.000000  0.045745      1.000000
  0.021120  0.000000  0.045745      4.000000
  0.042239  0.000000  0.045745      4.000000
  0.063359  0.000000  0.045745      4.000000
  0.084478  0.000000  0.045745      4.000000
  0.105598  0.000000  0.045745      4.000000
  0.126717  0.000000  0.045745      4.000000
  0.021120  0.021120  0.045745      4.000000
  0.042239  0.021120  0.045745      8.000000
  0.063359  0.021120  0.045745      8.000000
  0.084478  0.021120  0.045745      8.000000
  0.105598  0.021120  0.045745      8.000000
  0.126717  0.021120  0.045745      8.000000
  0.042239  0.042239  0.045745      4.000000
  0.063359  0.042239  0.045745      8.000000
  0.084478  0.042239  0.045745      8.000000
  0.105598  0.042239  0.045745      8.000000
  0.126717  0.042239  0.045745      8.000000
  0.063359  0.063359  0.045745      4.000000
  0.084478  0.063359  0.045745      8.000000
  0.105598  0.063359  0.045745      8.000000
  0.126717  0.063359  0.045745      8.000000
  0.084478  0.084478  0.045745      4.000000
  0.105598  0.084478  0.045745      8.000000
  0.126717  0.084478  0.045745      8.000000
  0.105598  0.105598  0.045745      4.000000
  0.126717  0.105598  0.045745      8.000000
  0.126717  0.126717  0.045745      4.000000
 


--------------------------------------------------------------------------------------------------------




 Dimension of arrays:
   k-points           NKPTS =     84   k-points in BZ     NKDIM =     84   number of bands    NBANDS=    128
   number of dos      NEDOS =    301   number of ions     NIONS =     12
   non local maximal  LDIM  =      6   non local SUM 2l+1 LMDIM =     18
   total plane-waves  NPLWV =  65856
   max r-space proj   IRMAX =      1   max aug-charges    IRDMAX=  27705
   dimension x,y,z NGX =    28 NGY =   28 NGZ =   84
   dimension x,y,z NGXF=    56 NGYF=   56 NGZF=  168
   support grid    NGXF=    56 NGYF=   56 NGZF=  168
   ions per type =               9   3
   NGX,Y,Z   is equivalent  to a cutoff of  12.78, 12.78, 12.78 a.u.
   NGXF,Y,Z  is equivalent  to a cutoff of  25.56, 25.56, 25.55 a.u.

 SYSTEM =  unknown system                          
 POSCAR =  Fe9 Pt3                                 

 Startparameter for this run:
   NWRITE =      2    write-flag & timer
   PREC   = accura    normal or accurate (medium, high low for compatibility)
   ISTART =      0    job   : 0-new  1-cont  2-samecut
   ICHARG =      2    charge: 1-file 2-atom 10-const
   ISPIN  =      2    spin polarized calculation?
   LNONCOLLINEAR =      F non collinear calculations
   LSORBIT =      F    spin-orbit coupling
   INIWAV =      1    electr: 0-lowe 1-rand  2-diag
   LASPH  =      F    aspherical Exc in radial PAW
 Electronic Relaxation 1
   ENCUT  =  520.0 eV  38.22 Ry    6.18 a.u.   6.77  6.77 20.32*2*pi/ulx,y,z
   ENINI  =  520.0     initial cutoff
   ENAUG  =  578.3 eV  augmentation charge cutoff
   NELM   =    200;   NELMIN=  2; NELMDL=  0     # of ELM steps 
   EDIFF  = 0.1E-05   stopping-criterion for ELM
   LREAL  =      F    real-space projection
   NLSPLINE    = F    spline interpolate recip. space projectors
   LCOMPAT=      F    compatible to vasp.4.4
   GGA_COMPAT  = T    GGA compatible to vasp.4.4-vasp.4.6
   LMAXPAW     = -100 max onsite density
   LMAXMIX     =    2 max onsite mixed and CHGCAR
   VOSKOWN=      0    Vosko Wilk Nusair interpolation
   ROPT   =    0.00000   0.00000
 Ionic relaxation
   EDIFFG = -.1E-01   stopping-criterion for IOM
   NSW    =      0    number of steps for IOM
   NBLOCK =      1;   KBLOCK =      1    inner block; outer block 
   IBRION =     -1    ionic relax: 0-MD 1-quasi-New 2-CG
   NFREE  =      0    steps in history (QN), initial steepest desc. (CG)
   ISIF   =      4    stress and relaxation
   IWAVPR =     10    prediction:  0-non 1-charg 2-wave 3-comb
   ISYM   =      2    0-nonsym 1-usesym 2-fastsym
   LCORR  =      T    Harris-Foulkes like correction to forces

   POTIM  = 0.5000    time-step for ionic-motion
   TEIN   =    0.0    initial temperature
   TEBEG  =    0.0;   TEEND  =   0.0 temperature during run
   SMASS  =  -3.00    Nose mass-parameter (am)
   estimated Nose-frequenzy (Omega)   =  0.10E-29 period in steps = 0.13E+47 mass=  -0.303E-27a.u.
   SCALEE = 1.0000    scale energy and forces
   NPACO  =    256;   APACO  = 10.0  distance and # of slots for P.C.
   PSTRESS=    0.0 pullay stress

  Mass of Ions in am
   POMASS =  55.85195.08
  Ionic Valenz
   ZVAL   =  14.00 10.00
  Atomic Wigner-Seitz radii
   RWIGS  =  -1.00 -1.00
  virtual crystal weights 
   VCA    =   1.00  1.00
   NELECT =     156.0000    total number of electrons
   NUPDOWN=      -1.0000    fix difference up-down

 DOS related values:
   EMIN   =  10.00;   EMAX   =-10.00  energy-range for DOS
   EFERMI =   0.00;   METHOD = LEGACY      
   ISMEAR =    -5;   SIGMA  =   0.20  broadening in eV -4-tet -1-fermi 0-gaus

 Electronic relaxation 2 (details)
   IALGO  =     38    algorithm
   LDIAG  =      T    sub-space diagonalisation (order eigenvalues)
   LSUBROT=      F    optimize rotation matrix (better conditioning)
   TURBO    =      0    0=normal 1=particle mesh
   IRESTART =      0    0=no restart 2=restart with 2 vectors
   NREBOOT  =      0    no. of reboots
   NMIN     =      0    reboot dimension
   EREF     =   0.00    reference energy to select bands
   IMIX   =      4    mixing-type and parameters
     AMIX     =   0.40;   BMIX     =  1.00
     AMIX_MAG =   1.60;   BMIX_MAG =  1.00
     AMIN     =   0.10
     WC   =   100.;   INIMIX=   1;  MIXPRE=   1;  MAXMIX= -45

 Intra band minimization:
   WEIMIN = 0.0000     energy-eigenvalue tresh-hold
   EBREAK =  0.20E-08  absolut break condition
   DEPER  =   0.30     relativ break condition  

   TIME   =   0.40     timestep for ELM

  volume/ion in A,a.u.               =      12.08        81.54
  Fermi-wavevector in a.u.,A,eV,Ry     =   1.677492  3.170000 38.286498  2.813978
  Thomas-Fermi vector in A             =   2.761748
 
 Write flags
   LWAVE        =      F    write WAVECAR
   LDOWNSAMPLE  =      F    k-point downsampling of WAVECAR
   LCHARG       =      T    write CHGCAR
   LVTOT        =      F    write LOCPOT, total local potential
   LVHAR        =      F    write LOCPOT, Hartree potential only
   WRT_POTENTIAL= false  ! write potential to hdf5 file
   LELF         =      F    write electronic localiz. function (ELF)
   LORBIT       =     11    0 simple, 1 ext, 2 COOP (PROOUT), +10 PAW based schemes


 Dipole corrections
   LMONO      =      F    monopole corrections only (constant potential shift)
   LDIPOL     =      F    correct potential (dipole corrections)
   IDIPOL     =      0    1-x, 2-y, 3-z, 4-all directions 
   EPSILON    =  1.0000000 bulk dielectric constant
   LVACPOTAV  =      F  vacuum potentials using an averaging scheme for the charge density
   VACPOTFLAT =  0.1000000 required flatness to determine vacuum potential
 Exchange correlation treatment:
   GGA     = PE    functional components
   XC_C    = 1    coefficients multiplying the functional components
   LIBXC   =     F    Libxc                    
   VOSKOWN =     0    Vosko Wilk Nusair interpolation
   LHFCALC =     F    Hartree Fock is set to
   LHFONE  =     F    Hartree Fock one center treatment
   AEXX    =    0.0000 exact exchange contribution

 Parameters of functionals:
   PE:
     No parameter
 
 Van der Waals corrections
   IVDW    =     0    specifies the selected vdW correction

 Linear response parameters
   LEPSILON=     F    determine dielectric tensor
   LRPA    =     F    only Hartree local field effects (RPA)
   LNABLA  =     F    use nabla operator in PAW spheres
   LVEL    =     F    velocity operator in full k-point grid
   CSHIFT  =0.1000    complex shift for real part using Kramers Kronig
   OMEGAMAX=  -1.0    maximum frequency
   DEG_THRESHOLD= 0.2000000E-02 threshold for treating states as degnerate
   RTIME   =   -0.100 relaxation time in fs
  (WPLASMAI=    0.000 imaginary part of plasma frequency in eV, 0.658/RTIME)
   DFIELD  = 0.0000000 0.0000000 0.0000000 field for delta impulse in time
 
  Optional k-point grid parameters
   LKPOINTS_OPT  =     F    use optional k-point grid
   KPOINTS_OPT_MODE=     1    mode for optional k-point grid
 
 Orbital magnetization related:
   ORBITALMAG=     F  switch on orbital magnetization
   LCHIMAG   =     F  perturbation theory with respect to B field
   DQ        =  0.001000  dq finite difference perturbation B field
   LLRAUG    =     F  two centre corrections for induced B field
   LBONE     =     F  B-component reconstruction in AE one-centre
   LVGVCALC  =     T  calculate vGv susceptibility
   LVGVAPPL  =     F  apply vGv susceptibility instead of pGv for G=0

 Random number generation:
   RANDOM_GENERATOR = DEFAULT
   PCG_SEED         = not used


--------------------------------------------------------------------------------------------------------


 Static calculation
 charge density and potential will be updated during run
 spin polarized calculation
 Variant of blocked Davidson
 Davidson routine will perform the subspace rotation
 perform sub-space diagonalisation
    after iterative eigenvector-optimisation
 modified Broyden-mixing scheme, WC =      100.0
 initial mixing is a Kerker type mixing with AMIX =  0.4000 and BMIX =      1.0000
 Hartree-type preconditioning will be used
 using additional bands           50
 reciprocal scheme for non local part
 use partial core corrections
 calculate Harris-corrections to forces 
   (improved forces if not selfconsistent)
 use gradient corrections 
 use of overlap-Matrix (Vanderbilt PP)
 Fermi weights with tetrahedron method with Bloechl corrections


--------------------------------------------------------------------------------------------------------


  energy-cutoff  :      520.00
  volume of cell :      145.00
      direct lattice vectors                 reciprocal lattice vectors
     3.642263825  0.000000000  0.000000000     0.274554521  0.000000000  0.000000000
     0.000000000  3.642263825  0.000000000     0.000000000  0.274554521  0.000000000
     0.000000000  0.000000000 10.930126828     0.000000000  0.000000000  0.091490247

  length of vectors
     3.642263825  3.642263825 10.930126828     0.274554521  0.274554521  0.091490247


 
 k-points in units of 2pi/SCALE and weight: pymatgen with grid density = 8800 / numb
   0.00000000  0.00000000  0.00000000       0.001
   0.02111958  0.00000000  0.00000000       0.006
   0.04223916  0.00000000  0.00000000       0.006
   0.06335874  0.00000000  0.00000000       0.006
   0.08447831  0.00000000  0.00000000       0.006
   0.10559789  0.00000000  0.00000000       0.006
   0.12671747  0.00000000  0.00000000       0.006
   0.02111958  0.02111958  0.00000000       0.006
   0.04223916  0.02111958  0.00000000       0.012
   0.06335874  0.02111958  0.00000000       0.012
   0.08447831  0.02111958  0.00000000       0.012
   0.10559789  0.02111958  0.00000000       0.012
   0.12671747  0.02111958  0.00000000       0.012
   0.04223916  0.04223916  0.00000000       0.006
   0.06335874  0.04223916  0.00000000       0.012
   0.08447831  0.04223916  0.00000000       0.012
   0.10559789  0.04223916  0.00000000       0.012
   0.12671747  0.04223916  0.00000000       0.012
   0.06335874  0.06335874  0.00000000       0.006
   0.08447831  0.06335874  0.00000000       0.012
   0.10559789  0.06335874  0.00000000       0.012
   0.12671747  0.06335874  0.00000000       0.012
   0.08447831  0.08447831  0.00000000       0.006
   0.10559789  0.08447831  0.00000000       0.012
   0.12671747  0.08447831  0.00000000       0.012
   0.10559789  0.10559789  0.00000000       0.006
   0.12671747  0.10559789  0.00000000       0.012
   0.12671747  0.12671747  0.00000000       0.006
   0.00000000  0.00000000  0.02287256       0.003
   0.02111958  0.00000000  0.02287256       0.012
   0.04223916  0.00000000  0.02287256       0.012
   0.06335874  0.00000000  0.02287256       0.012
   0.08447831  0.00000000  0.02287256       0.012
   0.10559789  0.00000000  0.02287256       0.012
   0.12671747  0.00000000  0.02287256       0.012
   0.02111958  0.02111958  0.02287256       0.012
   0.04223916  0.02111958  0.02287256       0.024
   0.06335874  0.02111958  0.02287256       0.024
   0.08447831  0.02111958  0.02287256       0.024
   0.10559789  0.02111958  0.02287256       0.024
   0.12671747  0.02111958  0.02287256       0.024
   0.04223916  0.04223916  0.02287256       0.012
   0.06335874  0.04223916  0.02287256       0.024
   0.08447831  0.04223916  0.02287256       0.024
   0.10559789  0.04223916  0.02287256       0.024
   0.12671747  0.04223916  0.02287256       0.024
   0.06335874  0.06335874  0.02287256       0.012
   0.08447831  0.06335874  0.02287256       0.024
   0.10559789  0.06335874  0.02287256       0.024
   0.12671747  0.06335874  0.02287256       0.024
   0.08447831  0.08447831  0.02287256       0.012
   0.10559789  0.08447831  0.02287256       0.024
   0.12671747  0.08447831  0.02287256       0.024
   0.10559789  0.10559789  0.02287256       0.012
   0.12671747  0.10559789  0.02287256       0.024
   0.12671747  0.12671747  0.02287256       0.012
   0.00000000  0.00000000  0.04574512       0.001
   0.02111958  0.00000000  0.04574512       0.006
   0.04223916  0.00000000  0.04574512       0.006
   0.06335874  0.00000000  0.04574512       0.006
   0.08447831  0.00000000  0.04574512       0.006
   0.10559789  0.00000000  0.04574512       0.006
   0.12671747  0.00000000  0.04574512       0.006
   0.02111958  0.02111958  0.04574512       0.006
   0.04223916  0.02111958  0.04574512       0.012
   0.06335874  0.02111958  0.04574512       0.012
   0.08447831  0.02111958  0.04574512       0.012
   0.10559789  0.02111958  0.04574512       0.012
   0.12671747  0.02111958  0.04574512       0.012
   0.04223916  0.04223916  0.04574512       0.006
   0.06335874  0.04223916  0.04574512       0.012
   0.08447831  0.04223916  0.04574512       0.012
   0.10559789  0.04223916  0.04574512       0.012
   0.12671747  0.04223916  0.04574512       0.012
   0.06335874  0.06335874  0.04574512       0.006
   0.08447831  0.06335874  0.04574512       0.012
   0.10559789  0.06335874  0.04574512       0.012
   0.12671747  0.06335874  0.04574512       0.012
   0.08447831  0.08447831  0.04574512       0.006
   0.10559789  0.08447831  0.04574512       0.012
   0.12671747  0.08447831  0.04574512       0.012
   0.10559789  0.10559789  0.04574512       0.006
   0.12671747  0.10559789  0.04574512       0.012
   0.12671747  0.12671747  0.04574512       0.006
 
 k-points in reciprocal lattice and weights: pymatgen with grid density = 8800 / numb
   0.00000000  0.00000000  0.00000000       0.001
   0.07692308  0.00000000  0.00000000       0.006
   0.15384615  0.00000000  0.00000000       0.006
   0.23076923  0.00000000  0.00000000       0.006
   0.30769231  0.00000000  0.00000000       0.006
   0.38461538  0.00000000  0.00000000       0.006
   0.46153846  0.00000000  0.00000000       0.006
   0.07692308  0.07692308  0.00000000       0.006
   0.15384615  0.07692308  0.00000000       0.012
   0.23076923  0.07692308  0.00000000       0.012
   0.30769231  0.07692308  0.00000000       0.012
   0.38461538  0.07692308  0.00000000       0.012
   0.46153846  0.07692308  0.00000000       0.012
   0.15384615  0.15384615  0.00000000       0.006
   0.23076923  0.15384615  0.00000000       0.012
   0.30769231  0.15384615  0.00000000       0.012
   0.38461538  0.15384615  0.00000000       0.012
   0.46153846  0.15384615  0.00000000       0.012
   0.23076923  0.23076923  0.00000000       0.006
   0.30769231  0.23076923  0.00000000       0.012
   0.38461538  0.23076923  0.00000000       0.012
   0.46153846  0.23076923  0.00000000       0.012
   0.30769231  0.30769231  0.00000000       0.006
   0.38461538  0.30769231  0.00000000       0.012
   0.46153846  0.30769231  0.00000000       0.012
   0.38461538  0.38461538  0.00000000       0.006
   0.46153846  0.38461538  0.00000000       0.012
   0.46153846  0.46153846  0.00000000       0.006
   0.00000000  0.00000000  0.25000000       0.003
   0.07692308  0.00000000  0.25000000       0.012
   0.15384615  0.00000000  0.25000000       0.012
   0.23076923  0.00000000  0.25000000       0.012
   0.30769231  0.00000000  0.25000000       0.012
   0.38461538  0.00000000  0.25000000       0.012
   0.46153846  0.00000000  0.25000000       0.012
   0.07692308  0.07692308  0.25000000       0.012
   0.15384615  0.07692308  0.25000000       0.024
   0.23076923  0.07692308  0.25000000       0.024
   0.30769231  0.07692308  0.25000000       0.024
   0.38461538  0.07692308  0.25000000       0.024
   0.46153846  0.07692308  0.25000000       0.024
   0.15384615  0.15384615  0.25000000       0.012
   0.23076923  0.15384615  0.25000000       0.024
   0.30769231  0.15384615  0.25000000       0.024
   0.38461538  0.15384615  0.25000000       0.024
   0.46153846  0.15384615  0.25000000       0.024
   0.23076923  0.23076923  0.25000000       0.012
   0.30769231  0.23076923  0.25000000       0.024
   0.38461538  0.23076923  0.25000000       0.024
   0.46153846  0.23076923  0.25000000       0.024
   0.30769231  0.30769231  0.25000000       0.012
   0.38461538  0.30769231  0.25000000       0.024
   0.46153846  0.30769231  0.25000000       0.024
   0.38461538  0.38461538  0.25000000       0.012
   0.46153846  0.38461538  0.25000000       0.024
   0.46153846  0.46153846  0.25000000       0.012
   0.00000000  0.00000000  0.50000000       0.001
   0.07692308  0.00000000  0.50000000       0.006
   0.15384615  0.00000000  0.50000000       0.006
   0.23076923  0.00000000  0.50000000       0.006
   0.30769231  0.00000000  0.50000000       0.006
   0.38461538  0.00000000  0.50000000       0.006
   0.46153846  0.00000000  0.50000000       0.006
   0.07692308  0.07692308  0.50000000       0.006
   0.15384615  0.07692308  0.50000000       0.012
   0.23076923  0.07692308  0.50000000       0.012
   0.30769231  0.07692308  0.50000000       0.012
   0.38461538  0.07692308  0.50000000       0.012
   0.46153846  0.07692308  0.50000000       0.012
   0.15384615  0.15384615  0.50000000       0.006
   0.23076923  0.15384615  0.50000000       0.012
   0.30769231  0.15384615  0.50000000       0.012
   0.38461538  0.15384615  0.50000000       0.012
   0.46153846  0.15384615  0.50000000       0.012
   0.23076923  0.23076923  0.50000000       0.006
   0.30769231  0.23076923  0.50000000       0.012
   0.38461538  0.23076923  0.50000000       0.012
   0.46153846  0.23076923  0.50000000       0.012
   0.30769231  0.30769231  0.50000000       0.006
   0.38461538  0.30769231  0.50000000       0.012
   0.46153846  0.30769231  0.50000000       0.012
   0.38461538  0.38461538  0.50000000       0.006
   0.46153846  0.38461538  0.50000000       0.012
   0.46153846  0.46153846  0.50000000       0.006
 
 position of ions in fractional coordinates (direct lattice) 
   0.00000000  0.50000000  0.16667652
   0.00000000  0.50000000  0.50000000
   0.00000000  0.50000000  0.83332348
   0.50000000  0.50000000  0.00000000
   0.50000000  0.50000000  0.33329301
   0.50000000  0.50000000  0.66670699
   0.50000000  0.00000000  0.16667652
   0.50000000  0.00000000  0.50000000
   0.50000000  0.00000000  0.83332348
   0.00000000  0.00000000  0.00000000
   0.00000000  0.00000000  0.33330949
   0.00000000  0.00000000  0.66669051
 
 position of ions in cartesian coordinates  (Angst):
   0.00000000  1.82113191  1.82179547
   0.00000000  1.82113191  5.46506341
   0.00000000  1.82113191  9.10833135
   1.82113191  1.82113191  0.00000000
   1.82113191  1.82113191  3.64293482
   1.82113191  1.82113191  7.28719200
   1.82113191  0.00000000  1.82179547
   1.82113191  0.00000000  5.46506341
   1.82113191  0.00000000  9.10833135
   0.00000000  0.00000000  0.00000000
   0.00000000  0.00000000  3.64311497
   0.00000000  0.00000000  7.28701186
 


--------------------------------------------------------------------------------------------------------


 k-point     1 :   0.0000 0.0000 0.0000  plane waves:    3929
 k-point     2 :   0.0769 0.0000 0.0000  plane waves:    3933
 k-point     3 :   0.1538 0.0000 0.0000  plane waves:    3901
 k-point     4 :   0.2308 0.0000 0.0000  plane waves:    3902
 k-point     5 :   0.3077 0.0000 0.0000  plane waves:    3910
 k-point     6 :   0.3846 0.0000 0.0000  plane waves:    3906
 k-point     7 :   0.4615 0.0000 0.0000  plane waves:    3890
 k-point     8 :   0.0769 0.0769 0.0000  plane waves:    3911
 k-point     9 :   0.1538 0.0769 0.0000  plane waves:    3906
 k-point    10 :   0.2308 0.0769 0.0000  plane waves:    3911
 k-point    11 :   0.3077 0.0769 0.0000  plane waves:    3903
 k-point    12 :   0.3846 0.0769 0.0000  plane waves:    3897
 k-point    13 :   0.4615 0.0769 0.0000  plane waves:    3891
 k-point    14 :   0.1538 0.1538 0.0000  plane waves:    3901
 k-point    15 :   0.2308 0.1538 0.0000  plane waves:    3895
 k-point    16 :   0.3077 0.1538 0.0000  plane waves:    3905
 k-point    17 :   0.3846 0.1538 0.0000  plane waves:    3907
 k-point    18 :   0.4615 0.1538 0.0000  plane waves:    3909
 k-point    19 :   0.2308 0.2308 0.0000  plane waves:    3880
 k-point    20 :   0.3077 0.2308 0.0000  plane waves:    3890
 k-point    21 :   0.3846 0.2308 0.0000  plane waves:    3901
 k-point    22 :   0.4615 0.2308 0.0000  plane waves:    3899
 k-point    23 :   0.3077 0.3077 0.0000  plane waves:    3886
 k-point    24 :   0.3846 0.3077 0.0000  plane waves:    3904
 k-point    25 :   0.4615 0.3077 0.0000  plane waves:    3909
 k-point    26 :   0.3846 0.3846 0.0000  plane waves:    3918
 k-point    27 :   0.4615 0.3846 0.0000  plane waves:    3914
 k-point    28 :   0.4615 0.4615 0.0000  plane waves:    3924
 k-point    29 :   0.0000 0.0000 0.2500  plane waves:    3925
 k-point    30 :   0.0769 0.0000 0.2500  plane waves:    3910
 k-point    31 :   0.1538 0.0000 0.2500  plane waves:    3905
 k-point    32 :   0.2308 0.0000 0.2500  plane waves:    3898
 k-point    33 :   0.3077 0.0000 0.2500  plane waves:    3910
 k-point    34 :   0.3846 0.0000 0.2500  plane waves:    3908
 k-point    35 :   0.4615 0.0000 0.2500  plane waves:    3899
 k-point    36 :   0.0769 0.0769 0.2500  plane waves:    3910
 k-point    37 :   0.1538 0.0769 0.2500  plane waves:    3911
 k-point    38 :   0.2308 0.0769 0.2500  plane waves:    3905
 k-point    39 :   0.3077 0.0769 0.2500  plane waves:    3900
 k-point    40 :   0.3846 0.0769 0.2500  plane waves:    3906
 k-point    41 :   0.4615 0.0769 0.2500  plane waves:    3894
 k-point    42 :   0.1538 0.1538 0.2500  plane waves:    3902
 k-point    43 :   0.2308 0.1538 0.2500  plane waves:    3897
 k-point    44 :   0.3077 0.1538 0.2500  plane waves:    3900
 k-point    45 :   0.3846 0.1538 0.2500  plane waves:    3908
 k-point    46 :   0.4615 0.1538 0.2500  plane waves:    3896
 k-point    47 :   0.2308 0.2308 0.2500  plane waves:    3899
 k-point    48 :   0.3077 0.2308 0.2500  plane waves:    3891
 k-point    49 :   0.3846 0.2308 0.2500  plane waves:    3900
 k-point    50 :   0.4615 0.2308 0.2500  plane waves:    3905
 k-point    51 :   0.3077 0.3077 0.2500  plane waves:    3903
 k-point    52 :   0.3846 0.3077 0.2500  plane waves:    3902
 k-point    53 :   0.4615 0.3077 0.2500  plane waves:    3907
 k-point    54 :   0.3846 0.3846 0.2500  plane waves:    3914
 k-point    55 :   0.4615 0.3846 0.2500  plane waves:    3919
 k-point    56 :   0.4615 0.4615 0.2500  plane waves:    3935
 k-point    57 :   0.0000 0.0000 0.5000  plane waves:    3888
 k-point    58 :   0.0769 0.0000 0.5000  plane waves:    3890
 k-point    59 :   0.1538 0.0000 0.5000  plane waves:    3898
 k-point    60 :   0.2308 0.0000 0.5000  plane waves:    3904
 k-point    61 :   0.3077 0.0000 0.5000  plane waves:    3892
 k-point    62 :   0.3846 0.0000 0.5000  plane waves:    3910
 k-point    63 :   0.4615 0.0000 0.5000  plane waves:    3898
 k-point    64 :   0.0769 0.0769 0.5000  plane waves:    3896
 k-point    65 :   0.1538 0.0769 0.5000  plane waves:    3898
 k-point    66 :   0.2308 0.0769 0.5000  plane waves:    3896
 k-point    67 :   0.3077 0.0769 0.5000  plane waves:    3898
 k-point    68 :   0.3846 0.0769 0.5000  plane waves:    3912
 k-point    69 :   0.4615 0.0769 0.5000  plane waves:    3900
 k-point    70 :   0.1538 0.1538 0.5000  plane waves:    3896
 k-point    71 :   0.2308 0.1538 0.5000  plane waves:    3910
 k-point    72 :   0.3077 0.1538 0.5000  plane waves:    3916
 k-point    73 :   0.3846 0.1538 0.5000  plane waves:    3884
 k-point    74 :   0.4615 0.1538 0.5000  plane waves:    3892
 k-point    75 :   0.2308 0.2308 0.5000  plane waves:    3900
 k-point    76 :   0.3077 0.2308 0.5000  plane waves:    3894
 k-point    77 :   0.3846 0.2308 0.5000  plane waves:    3900
 k-point    78 :   0.4615 0.2308 0.5000  plane waves:    3904
 k-point    79 :   0.3077 0.3077 0.5000  plane waves:    3918
 k-point    80 :   0.3846 0.3077 0.5000  plane waves:    3912
 k-point    81 :   0.4615 0.3077 0.5000  plane waves:    3924
 k-point    82 :   0.3846 0.3846 0.5000  plane waves:    3914
 k-point    83 :   0.4615 0.3846 0.5000  plane waves:    3918
 k-point    84 :   0.4615 0.4615 0.5000  plane waves:    3926

 maximum and minimum number of plane-waves per node :      3935     3880

 maximum number of plane-waves:      3935
 maximum index in each direction: 
   IXMAX=    6   IYMAX=    6   IZMAX=   20
   IXMIN=   -7   IYMIN=   -7   IZMIN=  -20


 serial   3D FFT for wavefunctions
 parallel 3D FFT for charge:
    minimum data exchange during FFTs selected (reduces bandwidth)


 total amount of memory used by VASP MPI-rank0   178777. kBytes
=======================================================================

   base      :      30000. kBytes
   nonl-proj :      95975. kBytes
   fftplans  :        888. kBytes
   grid      :       6813. kBytes
   one-center:        373. kBytes
   wavefun   :      44728. kBytes
 
     INWAV:  cpu time      0.0000: real time      0.0000
 Broyden mixing: mesh for mixing (old mesh)
   NGX = 13   NGY = 13   NGZ = 41
  (NGX  = 56   NGY  = 56   NGZ  =168)
  gives a total of   6929 points

 initial charge density was supplied:
 charge density of overlapping atoms calculated
 number of electron     156.0000000 magnetization      23.9060000
 keeping initial charge density in first step


--------------------------------------------------------------------------------------------------------


 Maximum index for augmentation-charges         1085 (set IRDMAX)


--------------------------------------------------------------------------------------------------------


 First call to EWALD:  gamma=   0.337
 Maximum number of real-space cells 4x 4x 2
 Maximum number of reciprocal cells 2x 2x 5

    FEWALD:  cpu time      0.0022: real time      0.0023


--------------------------------------- Ionic step        1  -------------------------------------------




--------------------------------------- Iteration      1(   1)  ---------------------------------------


    POTLOK:  cpu time      0.0260: real time      0.0641
    SETDIJ:  cpu time      0.0100: real time      0.0104
     EDDAV:  cpu time      9.3677: real time      9.4523
 BZINTS: Fermi energy:   24.298921;  156.000000 electrons
         Band energy: 0.658680E+03;  BLOECHL correction:   -0.069864
       DOS:  cpu time      0.1320: real time      0.1338
    --------------------------------------------
      LOOP:  cpu time      9.5357: real time      9.6607

 eigenvalue-minimisations  : 43104
 total energy-change (2. order) : 0.1765310E+04  (-0.8380646E+04)
 number of electron     156.0000000 magnetization      23.9060000
 augmentation part      156.0000000 magnetization      23.9060000

 Free energy of the ion-electron system (eV)
  ---------------------------------------------------
  alpha Z        PSCENC =      1173.72503148
  Ewald energy   TEWEN  =    -18538.71534324
  -Hartree energ DENC   =     -5768.51407302
  -exchange      EXHF   =         0.00000000
  -V(xc)+E(xc)   XCENC  =       660.01161177
  PAW double counting   =     20094.52897089   -20818.50914739
  entropy T*S    EENTRO =         0.00000000
  eigenvalues    EBANDS =       658.67970076
  atomic energy  EATOM  =     24304.10294433
  Solvation  Ediel_sol  =         0.00000000
  ---------------------------------------------------
  free energy    TOTEN  =      1765.30969557 eV

  energy without entropy =     1765.30969557  energy(sigma->0) =     1765.30969557


--------------------------------------------------------------------------------------------------------




--------------------------------------- Iteration      1(   2)  ---------------------------------------


     EDDAV:  cpu time      5.8043: real time      5.8482
 BZINTS: Fermi energy:   13.221973;  156.000000 electrons
         Band energy:-0.109983E+04;  BLOECHL correction:   -0.031863
       DOS:  cpu time      0.1278: real time      0.1287
    --------------------------------------------
      LOOP:  cpu time      5.9321: real time      5.9768

 eigenvalue-minimisations  : 43008
 total energy-change (2. order) :-0.1758511E+04  (-0.1665931E+04)
 number of electron     156.0000000 magnetization      23.9060000
 augmentation part      156.0000000 magnetization      23.9060000

 Free energy of the ion-electron system (eV)
  ---------------------------------------------------
  alpha Z        PSCENC =      1173.72503148
  Ewald energy   TEWEN  =    -18538.71534324
  -Hartree energ DENC   =     -5768.51407302
  -exchange      EXHF   =         0.00000000
  -V(xc)+E(xc)   XCENC  =       660.01161177
  PAW double counting   =     20094.52897089   -20818.50914739
  entropy T*S    EENTRO =         0.00000000
  eigenvalues    EBANDS =     -1099.83168577
  atomic energy  EATOM  =     24304.10294433
  Solvation  Ediel_sol  =         0.00000000
  ---------------------------------------------------
  free energy    TOTEN  =         6.79830904 eV

  energy without entropy =        6.79830904  energy(sigma->0) =        6.79830904


--------------------------------------------------------------------------------------------------------




--------------------------------------- Iteration      1(   3)  ---------------------------------------


     EDDAV:  cpu time      6.8971: real time      6.9493
 BZINTS: Fermi energy:   12.622778;  156.000000 electrons
         Band energy:-0.120904E+04;  BLOECHL correction:   -0.067799
       DOS:  cpu time      0.1285: real time      0.1295
    --------------------------------------------
      LOOP:  cpu time      7.0256: real time      7.0788

 eigenvalue-minimisations  : 51168
 total energy-change (2. order) :-0.1092041E+03  (-0.1076547E+03)
 number of electron     156.0000000 magnetization      23.9060000
 augmentation part      156.0000000 magnetization      23.9060000

 Free energy of the ion-electron system (eV)
  ---------------------------------------------------
  alpha Z        PSCENC =      1173.72503148
  Ewald energy   TEWEN  =    -18538.71534324
  -Hartree energ DENC   =     -5768.51407302
  -exchange      EXHF   =         0.00000000
  -V(xc)+E(xc)   XCENC  =       660.01161177
  PAW double counting   =     20094.52897089   -20818.50914739
  entropy T*S    EENTRO =         0.00000000
  eigenvalues    EBANDS =     -1209.03581450
  atomic energy  EATOM  =     24304.10294433
  Solvation  Ediel_sol  =         0.00000000
  ---------------------------------------------------
  free energy    TOTEN  =      -102.40581969 eV

  energy without entropy =     -102.40581969  energy(sigma->0) =     -102.40581969


--------------------------------------------------------------------------------------------------------




--------------------------------------- Iteration      1(   4)  ---------------------------------------


     EDDAV:  cpu time      6.0134: real time      6.0612
 BZINTS: Fermi energy:   12.618021;  156.000000 electrons
         Band energy:-0.121056E+04;  BLOECHL correction:   -0.068114
       DOS:  cpu time      0.1288: real time      0.1300
    --------------------------------------------
      LOOP:  cpu time      6.1422: real time      6.1912

 eigenvalue-minimisations  : 45472
 total energy-change (2. order) :-0.1524958E+01  (-0.1524473E+01)
 number of electron     156.0000000 magnetization      23.9060000
 augmentation part      156.0000000 magnetization      23.9060000

 Free energy of the ion-electron system (eV)
  ---------------------------------------------------
  alpha Z        PSCENC =      1173.72503148
  Ewald energy   TEWEN  =    -18538.71534324
  -Hartree energ DENC   =     -5768.51407302
  -exchange      EXHF   =         0.00000000
  -V(xc)+E(xc)   XCENC  =       660.01161177
  PAW double counting   =     20094.52897089   -20818.50914739
  entropy T*S    EENTRO =         0.00000000
  eigenvalues    EBANDS =     -1210.56077209
  atomic energy  EATOM  =     24304.10294433
  Solvation  Ediel_sol  =         0.00000000
  ---------------------------------------------------
  free energy    TOTEN  =      -103.93077728 eV

  energy without entropy =     -103.93077728  energy(sigma->0) =     -103.93077728


--------------------------------------------------------------------------------------------------------




--------------------------------------- Iteration      1(   5)  ---------------------------------------


     EDDAV:  cpu time      7.0615: real time      7.1147
 BZINTS: Fermi energy:   12.617977;  156.000000 electrons
         Band energy:-0.121059E+04;  BLOECHL correction:   -0.068114
       DOS:  cpu time      0.1287: real time      0.1297
    CHARGE:  cpu time      0.1519: real time      0.1533
    MIXING:  cpu time      0.0067: real time      0.0070
    --------------------------------------------
      LOOP:  cpu time      7.3488: real time      7.4048

 eigenvalue-minimisations  : 52864
 total energy-change (2. order) :-0.2735732E-01  (-0.2735691E-01)
 number of electron     155.9999774 magnetization      21.7804401
 augmentation part       79.3732240 magnetization      16.6072044

 Broyden mixing:
  rms(total) = 0.42158E+01    rms(broyden)= 0.42151E+01
  rms(prec ) = 0.46469E+01
  weight for this iteration     100.00

 Free energy of the ion-electron system (eV)
  ---------------------------------------------------
  alpha Z        PSCENC =      1173.72503148
  Ewald energy   TEWEN  =    -18538.71534324
  -Hartree energ DENC   =     -5768.51407302
  -exchange      EXHF   =         0.00000000
  -V(xc)+E(xc)   XCENC  =       660.01161177
  PAW double counting   =     20094.52897089   -20818.50914739
  entropy T*S    EENTRO =         0.00000000
  eigenvalues    EBANDS =     -1210.58812941
  atomic energy  EATOM  =     24304.10294433
  Solvation  Ediel_sol  =         0.00000000
  ---------------------------------------------------
  free energy    TOTEN  =      -103.95813460 eV

  energy without entropy =     -103.95813460  energy(sigma->0) =     -103.95813460


--------------------------------------------------------------------------------------------------------




--------------------------------------- Iteration      1(   6)  ---------------------------------------


    POTLOK:  cpu time      0.0427: real time      0.0435
    SETDIJ:  cpu time      0.0080: real time      0.0081
     EDDAV:  cpu time      6.3721: real time      6.4170
 BZINTS: Fermi energy:   10.032885;  156.000000 electrons
         Band energy:-0.160282E+04;  BLOECHL correction:   -0.076699
       DOS:  cpu time      0.1349: real time      0.1362
    CHARGE:  cpu time      0.1476: real time      0.1484
    MIXING:  cpu time      0.0023: real time      0.0024
    --------------------------------------------
      LOOP:  cpu time      6.7076: real time      6.7556

 eigenvalue-minimisations  : 48448
 total energy-change (2. order) : 0.5020687E+01  (-0.5966949E+01)
 number of electron     155.9999751 magnetization      20.9480005
 augmentation part       87.5240360 magnetization      16.1744992

 Broyden mixing:
  rms(total) = 0.31217E+01    rms(broyden)= 0.31213E+01
  rms(prec ) = 0.38418E+01
  weight for this iteration     100.00

 eigenvalues of (default mixing * dielectric matrix)
  average eigenvalue GAMMA=   0.5483
  0.5483

 Free energy of the ion-electron system (eV)
  ---------------------------------------------------
  alpha Z        PSCENC =      1173.72503148
  Ewald energy   TEWEN  =    -18538.71534324
  -Hartree energ DENC   =     -5373.92061300
  -exchange      EXHF   =         0.00000000
  -V(xc)+E(xc)   XCENC  =       642.23579615
  PAW double counting   =     20720.42921648   -21423.97534816
  entropy T*S    EENTRO =         0.00000000
  eigenvalues    EBANDS =     -1602.81913180
  atomic energy  EATOM  =     24304.10294433
  Solvation  Ediel_sol  =         0.00000000
  ---------------------------------------------------
  free energy    TOTEN  =       -98.93744776 eV

  energy without entropy =      -98.93744776  energy(sigma->0) =      -98.93744776


--------------------------------------------------------------------------------------------------------




--------------------------------------- Iteration      1(   7)  ---------------------------------------


    POTLOK:  cpu time      0.0429: real time      0.0443
    SETDIJ:  cpu time      0.0081: real time      0.0082
     EDDAV:  cpu time      6.5397: real time      6.5860
 BZINTS: Fermi energy:   11.319512;  156.000000 electrons
         Band energy:-0.141297E+04;  BLOECHL correction:   -0.049180
       DOS:  cpu time      0.1351: real time      0.1365
    CHARGE:  cpu time      0.1475: real time      0.1486
    MIXING:  cpu time      0.0023: real time      0.0023
    --------------------------------------------
      LOOP:  cpu time      6.8757: real time      6.9260

 eigenvalue-minimisations  : 49824
 total energy-change (2. order) : 0.2442079E+01  (-0.8863991E+01)
 number of electron     155.9999770 magnetization      20.1582271
 augmentation part       83.0351624 magnetization      14.8886648

 Broyden mixing:
  rms(total) = 0.23677E+01    rms(broyden)= 0.23674E+01
  rms(prec ) = 0.27559E+01
  weight for this iteration     100.00

 eigenvalues of (default mixing * dielectric matrix)
  average eigenvalue GAMMA=   0.7197
  1.1036  0.3358

 Free energy of the ion-electron system (eV)
  ---------------------------------------------------
  alpha Z        PSCENC =      1173.72503148
  Ewald energy   TEWEN  =    -18538.71534324
  -Hartree energ DENC   =     -5532.15345831
  -exchange      EXHF   =         0.00000000
  -V(xc)+E(xc)   XCENC  =       647.85134629
  PAW double counting   =     21419.95570572   -22158.28929083
  entropy T*S    EENTRO =         0.00000000
  eigenvalues    EBANDS =     -1412.97230470
  atomic energy  EATOM  =     24304.10294433
  Solvation  Ediel_sol  =         0.00000000
  ---------------------------------------------------
  free energy    TOTEN  =       -96.49536926 eV

  energy without entropy =      -96.49536926  energy(sigma->0) =      -96.49536926


--------------------------------------------------------------------------------------------------------




--------------------------------------- Iteration      1(   8)  ---------------------------------------


    POTLOK:  cpu time      0.0381: real time      0.0437
    SETDIJ:  cpu time      0.0086: real time      0.0087
     EDDAV:  cpu time      6.5719: real time      6.6163
 BZINTS: Fermi energy:   10.816160;  156.000000 electrons
         Band energy:-0.146984E+04;  BLOECHL correction:   -0.044197
       DOS:  cpu time      0.1349: real time      0.1359
    CHARGE:  cpu time      0.1468: real time      0.1478
    MIXING:  cpu time      0.0021: real time      0.0021
    --------------------------------------------
      LOOP:  cpu time      6.9025: real time      6.9546

 eigenvalue-minimisations  : 50144
 total energy-change (2. order) : 0.2190141E+01  (-0.1271112E+01)
 number of electron     155.9999764 magnetization      20.0842502
 augmentation part       84.3858048 magnetization      15.1927495

 Broyden mixing:
  rms(total) = 0.17695E+01    rms(broyden)= 0.17693E+01
  rms(prec ) = 0.24822E+01
  weight for this iteration     100.00

 eigenvalues of (default mixing * dielectric matrix)
  average eigenvalue GAMMA=   0.6285
  1.1714  0.3571  0.3571

 Free energy of the ion-electron system (eV)
  ---------------------------------------------------
  alpha Z        PSCENC =      1173.72503148
  Ewald energy   TEWEN  =    -18538.71534324
  -Hartree energ DENC   =     -5463.70033214
  -exchange      EXHF   =         0.00000000
  -V(xc)+E(xc)   XCENC  =       645.92782219
  PAW double counting   =     21900.99719539   -22646.79986927
  entropy T*S    EENTRO =         0.00000000
  eigenvalues    EBANDS =     -1469.84267733
  atomic energy  EATOM  =     24304.10294433
  Solvation  Ediel_sol  =         0.00000000
  ---------------------------------------------------
  free energy    TOTEN  =       -94.30522860 eV

  energy without entropy =      -94.30522860  energy(sigma->0) =      -94.30522860


--------------------------------------------------------------------------------------------------------




--------------------------------------- Iteration      1(   9)  ---------------------------------------


    POTLOK:  cpu time      0.0434: real time      0.0443
    SETDIJ:  cpu time      0.0082: real time      0.0083
     EDDAV:  cpu time      6.9077: real time      6.9540
 BZINTS: Fermi energy:   10.817178;  156.000000 electrons
         Band energy:-0.147696E+04;  BLOECHL correction:   -0.039192
       DOS:  cpu time      0.1340: real time      0.1350
    CHARGE:  cpu time      0.1473: real time      0.1486
    MIXING:  cpu time      0.0018: real time      0.0018
    --------------------------------------------
      LOOP:  cpu time      7.2424: real time      7.2919

 eigenvalue-minimisations  : 51712
 total energy-change (2. order) :-0.9999405E-01  (-0.1873445E+01)
 number of electron     155.9999765 magnetization      19.8935008
 augmentation part       84.5391795 magnetization      15.1944899

 Broyden mixing:
  rms(total) = 0.20380E+01    rms(broyden)= 0.20377E+01
  rms(prec ) = 0.31329E+01
  weight for this iteration     100.00

 eigenvalues of (default mixing * dielectric matrix)
  average eigenvalue GAMMA=   0.6482
  1.3964  0.7193  0.3675  0.1097

 Free energy of the ion-electron system (eV)
  ---------------------------------------------------
  alpha Z        PSCENC =      1173.72503148
  Ewald energy   TEWEN  =    -18538.71534324
  -Hartree energ DENC   =     -5454.86788232
  -exchange      EXHF   =         0.00000000
  -V(xc)+E(xc)   XCENC  =       645.73762171
  PAW double counting   =     21982.22939908   -22729.65841870
  entropy T*S    EENTRO =         0.00000000
  eigenvalues    EBANDS =     -1476.95857499
  atomic energy  EATOM  =     24304.10294433
  Solvation  Ediel_sol  =         0.00000000
  ---------------------------------------------------
  free energy    TOTEN  =       -94.40522265 eV

  energy without entropy =      -94.40522265  energy(sigma->0) =      -94.40522265


--------------------------------------------------------------------------------------------------------




--------------------------------------- Iteration      1(  10)  ---------------------------------------


    POTLOK:  cpu time      0.0386: real time      0.0446
    SETDIJ:  cpu time      0.0083: real time      0.0084
     EDDAV:  cpu time      6.9844: real time      7.0347
 BZINTS: Fermi energy:   10.694836;  156.000000 electrons
         Band energy:-0.148948E+04;  BLOECHL correction:   -0.040328
       DOS:  cpu time      0.1988: real time      0.2002
    CHARGE:  cpu time      0.1478: real time      0.1486
    MIXING:  cpu time      0.0021: real time      0.0021
    --------------------------------------------
      LOOP:  cpu time      7.3799: real time      7.4386

 eigenvalue-minimisations  : 52512
 total energy-change (2. order) : 0.3186804E+00  (-0.2426436E+01)
 number of electron     155.9999762 magnetization      19.8583208
 augmentation part       84.8941057 magnetization      15.0900814

 Broyden mixing:
  rms(total) = 0.18434E+01    rms(broyden)= 0.18432E+01
  rms(prec ) = 0.29984E+01
  weight for this iteration     100.00

 eigenvalues of (default mixing * dielectric matrix)
  average eigenvalue GAMMA=   0.5881
  1.4988  0.7918  0.3536  0.1979  0.0983

 Free energy of the ion-electron system (eV)
  ---------------------------------------------------
  alpha Z        PSCENC =      1173.72503148
  Ewald energy   TEWEN  =    -18538.71534324
  -Hartree energ DENC   =     -5436.81834081
  -exchange      EXHF   =         0.00000000
  -V(xc)+E(xc)   XCENC  =       645.38748063
  PAW double counting   =     22198.09602128   -22950.38231040
  entropy T*S    EENTRO =         0.00000000
  eigenvalues    EBANDS =     -1489.48202547
  atomic energy  EATOM  =     24304.10294433
  Solvation  Ediel_sol  =         0.00000000
  ---------------------------------------------------
  free energy    TOTEN  =       -94.08654220 eV

  energy without entropy =      -94.08654220  energy(sigma->0) =      -94.08654220


--------------------------------------------------------------------------------------------------------




--------------------------------------- Iteration      1(  11)  ---------------------------------------


    POTLOK:  cpu time      0.0419: real time      0.0435
    SETDIJ:  cpu time      0.0088: real time      0.0088
     EDDAV:  cpu time      7.0373: real time      7.0845
 BZINTS: Fermi energy:   10.608508;  156.000000 electrons
         Band energy:-0.149035E+04;  BLOECHL correction:   -0.057574
       DOS:  cpu time      0.1349: real time      0.1362
    CHARGE:  cpu time      0.1466: real time      0.1475
    MIXING:  cpu time      0.0018: real time      0.0018
    --------------------------------------------
      LOOP:  cpu time      7.3712: real time      7.4223

 eigenvalue-minimisations  : 52800
 total energy-change (2. order) : 0.1193586E+01  (-0.1141091E+01)
 number of electron     155.9999764 magnetization      20.0763166
 augmentation part       84.9954301 magnetization      15.0924566

 Broyden mixing:
  rms(total) = 0.69832E+00    rms(broyden)= 0.69790E+00
  rms(prec ) = 0.82789E+00
  weight for this iteration     100.00

 eigenvalues of (default mixing * dielectric matrix)
  average eigenvalue GAMMA=   0.5910
  1.5726  0.9951  0.3883  0.3883  0.1155  0.0859

 Free energy of the ion-electron system (eV)
  ---------------------------------------------------
  alpha Z        PSCENC =      1173.72503148
  Ewald energy   TEWEN  =    -18538.71534324
  -Hartree energ DENC   =     -5432.82889662
  -exchange      EXHF   =         0.00000000
  -V(xc)+E(xc)   XCENC  =       645.34774874
  PAW double counting   =     22274.40671400   -23028.58222115
  entropy T*S    EENTRO =         0.00000000
  eigenvalues    EBANDS =     -1490.34893403
  atomic energy  EATOM  =     24304.10294433
  Solvation  Ediel_sol  =         0.00000000
  ---------------------------------------------------
  free energy    TOTEN  =       -92.89295649 eV

  energy without entropy =      -92.89295649  energy(sigma->0) =      -92.89295649


--------------------------------------------------------------------------------------------------------




--------------------------------------- Iteration      1(  12)  ---------------------------------------


    POTLOK:  cpu time      0.0376: real time      0.0440
    SETDIJ:  cpu time      0.0086: real time      0.0087
     EDDAV:  cpu time      6.6419: real time      6.6873
 BZINTS: Fermi energy:   10.627987;  156.000000 electrons
         Band energy:-0.148822E+04;  BLOECHL correction:   -0.059819
       DOS:  cpu time      0.1351: real time      0.1365
    CHARGE:  cpu time      0.1466: real time      0.1474
    MIXING:  cpu time      0.0018: real time      0.0019
    --------------------------------------------
      LOOP:  cpu time      6.9717: real time      7.0257

 eigenvalue-minimisations  : 49760
 total energy-change (2. order) :-0.3124637E-01  (-0.6935816E-01)
 number of electron     155.9999764 magnetization      20.1975083
 augmentation part       84.9718419 magnetization      15.1749954

 Broyden mixing:
  rms(total) = 0.59514E+00    rms(broyden)= 0.59510E+00
  rms(prec ) = 0.67404E+00
  weight for this iteration     100.00

 eigenvalues of (default mixing * dielectric matrix)
  average eigenvalue GAMMA=   0.5450
  1.6150  1.0191  0.3419  0.3419  0.2849  0.1220  0.0904

 Free energy of the ion-electron system (eV)
  ---------------------------------------------------
  alpha Z        PSCENC =      1173.72503148
  Ewald energy   TEWEN  =    -18538.71534324
  -Hartree energ DENC   =     -5432.59189672
  -exchange      EXHF   =         0.00000000
  -V(xc)+E(xc)   XCENC  =       645.77515386
  PAW double counting   =     22378.30097089   -23135.29847255
  entropy T*S    EENTRO =         0.00000000
  eigenvalues    EBANDS =     -1488.22259090
  atomic energy  EATOM  =     24304.10294433
  Solvation  Ediel_sol  =         0.00000000
  ---------------------------------------------------
  free energy    TOTEN  =       -92.92420286 eV

  energy without entropy =      -92.92420286  energy(sigma->0) =      -92.92420286


--------------------------------------------------------------------------------------------------------




--------------------------------------- Iteration      1(  13)  ---------------------------------------


    POTLOK:  cpu time      0.0433: real time      0.0442
    SETDIJ:  cpu time      0.0086: real time      0.0086
     EDDAV:  cpu time      6.5625: real time      6.6050
 BZINTS: Fermi energy:   10.632295;  156.000000 electrons
         Band energy:-0.148771E+04;  BLOECHL correction:   -0.059818
       DOS:  cpu time      0.1355: real time      0.1364
    CHARGE:  cpu time      0.1460: real time      0.1470
    MIXING:  cpu time      0.0023: real time      0.0023
    --------------------------------------------
      LOOP:  cpu time      6.8982: real time      6.9435

 eigenvalue-minimisations  : 50080
 total energy-change (2. order) : 0.3793860E-01  (-0.3455256E-01)
 number of electron     155.9999764 magnetization      20.8170236
 augmentation part       84.9648441 magnetization      15.7656503

 Broyden mixing:
  rms(total) = 0.46508E+00    rms(broyden)= 0.46505E+00
  rms(prec ) = 0.49059E+00
  weight for this iteration     100.00

 eigenvalues of (default mixing * dielectric matrix)
  average eigenvalue GAMMA=   0.6196
  1.8182  0.9762  0.7116  0.7116  0.3738  0.0890  0.1175  0.1587

 Free energy of the ion-electron system (eV)
  ---------------------------------------------------
  alpha Z        PSCENC =      1173.72503148
  Ewald energy   TEWEN  =    -18538.71534324
  -Hartree energ DENC   =     -5432.48256797
  -exchange      EXHF   =         0.00000000
  -V(xc)+E(xc)   XCENC  =       645.92003801
  PAW double counting   =     22408.53738929   -23166.26148371
  entropy T*S    EENTRO =         0.00000000
  eigenvalues    EBANDS =     -1487.71227244
  atomic energy  EATOM  =     24304.10294433
  Solvation  Ediel_sol  =         0.00000000
  ---------------------------------------------------
  free energy    TOTEN  =       -92.88626426 eV

  energy without entropy =      -92.88626426  energy(sigma->0) =      -92.88626426


--------------------------------------------------------------------------------------------------------




--------------------------------------- Iteration      1(  14)  ---------------------------------------


    POTLOK:  cpu time      0.0383: real time      0.0446
    SETDIJ:  cpu time      0.0082: real time      0.0082
     EDDAV:  cpu time      6.7930: real time      6.8403
 BZINTS: Fermi energy:   10.646260;  156.000000 electrons
[...]
    113      26.3191      0.00000
    114      26.7520      0.00000
    115      26.7555      0.00000
    116      27.1437      0.00000
    117      27.1462      0.00000
    118      28.0651      0.00000
    119      28.0680      0.00000
    120      28.6394      0.00000
    121      28.6417      0.00000
    122      28.6915      0.00000
    123      29.1731      0.00000
    124      30.4288      0.00000
    125      30.4297      0.00000
    126      30.8325      0.00000
    127      30.8335      0.00000
    128      31.6340      0.00000


--------------------------------------------------------------------------------------------------------


 soft charge-density along one line, spin component           1
         0         1         2         3         4         5         6         7         8         9
 total charge-density along one line
 
 soft charge-density along one line, spin component           2
         0         1         2         3         4         5         6         7         8         9
 total charge-density along one line
 
 pseudopotential strength for first ion, spin component:           1
-44.284  -0.000  -0.000   7.332   0.000   0.000  -0.000  -0.000
 -0.000 -44.285  -0.000   0.000   7.333   0.000   0.000   0.000
 -0.000  -0.000 -44.173   0.000   0.000   7.287   0.000   0.000
  7.332   0.000   0.000   5.698   0.000   0.000  -0.000   0.000
  0.000   7.333   0.000   0.000   5.698   0.000  -0.000  -0.000
  0.000   0.000   7.287   0.000   0.000   5.707  -0.000  -0.000
 -0.000   0.000   0.000  -0.000  -0.000  -0.000  -1.481  -0.000
 -0.000   0.000   0.000   0.000  -0.000  -0.000  -0.000  -1.565
 -0.000  -0.000  -0.000   0.000   0.000  -0.000   0.000  -0.000
  0.000   0.000  -0.000  -0.000   0.000   0.000  -0.000  -0.000
 -0.000  -0.000  -0.000   0.000   0.000   0.000  -0.000   0.000
 -0.000   0.000   0.000   0.000  -0.000  -0.000  -2.004  -0.000
 -0.000   0.000   0.000   0.000  -0.000  -0.000  -0.000  -2.086
 -0.000  -0.000   0.000   0.000   0.000  -0.000   0.000  -0.000
  0.000  -0.000  -0.000  -0.000   0.000   0.000  -0.000  -0.000
 -0.000  -0.000  -0.000   0.000   0.000   0.000  -0.000   0.000
 -0.000   0.000   0.000  -0.000  -0.000   0.000   0.000   0.000
 -0.000   0.000   0.000  -0.000  -0.000   0.000   0.000   0.000
 pseudopotential strength for first ion, spin component:           2
-42.068  -0.000  -0.000   6.398   0.000   0.000   0.000  -0.000
 -0.000 -42.068  -0.000   0.000   6.398   0.000   0.000   0.000
 -0.000  -0.000 -41.988   0.000   0.000   6.364   0.000   0.000
  6.398   0.000   0.000   5.957   0.000   0.000  -0.000   0.000
  0.000   6.398   0.000   0.000   5.957   0.000  -0.000  -0.000
  0.000   0.000   6.364   0.000   0.000   5.964  -0.000  -0.000
  0.000   0.000   0.000  -0.000  -0.000  -0.000   0.278  -0.000
 -0.000   0.000   0.000   0.000  -0.000  -0.000  -0.000   0.226
 -0.000  -0.000  -0.000   0.000   0.000   0.000   0.000  -0.000
  0.000   0.000  -0.000  -0.000   0.000   0.000  -0.000  -0.000
 -0.000   0.000   0.000   0.000  -0.000   0.000  -0.000   0.000
  0.000   0.000   0.000  -0.000  -0.000  -0.000  -0.274  -0.000
 -0.000   0.000   0.000   0.000  -0.000  -0.000  -0.000  -0.325
 -0.000  -0.000   0.000   0.000   0.000   0.000   0.000  -0.000
  0.000   0.000  -0.000  -0.000  -0.000   0.000  -0.000  -0.000
 -0.000   0.000   0.000   0.000  -0.000  -0.000  -0.000   0.000
 -0.000   0.000   0.000  -0.000  -0.000  -0.000   0.000   0.000
 -0.000   0.000  -0.000  -0.000  -0.000  -0.000   0.000   0.000
 total augmentation occupancy for first ion, spin component:           1
  1.992   0.000   0.000  -0.024   0.000   0.000   0.000   0.000   0.000   0.000   0.000   0.000  -0.000   0.000   0.000   0.000
  0.000   1.992   0.000   0.000  -0.024  -0.000   0.000   0.000   0.000   0.000   0.000   0.000   0.000  -0.000   0.000  -0.000
  0.000   0.000   1.992   0.000  -0.000  -0.024   0.000   0.000  -0.000   0.000  -0.000   0.000  -0.000  -0.000  -0.000   0.000
 -0.024   0.000   0.000   0.204   0.000   0.000   0.000  -0.000  -0.000   0.000   0.000   0.000   0.000   0.000  -0.000   0.000
  0.000  -0.024  -0.000   0.000   0.204  -0.000   0.000   0.000   0.000   0.000   0.000   0.000   0.000  -0.000  -0.000  -0.000
  0.000  -0.000  -0.024   0.000  -0.000   0.182  -0.000   0.000   0.000  -0.000   0.000   0.000   0.000   0.000   0.000  -0.000
  0.000   0.000   0.000   0.000   0.000  -0.000   3.070   0.000   0.000  -0.000   0.000  -1.871  -0.000   0.000   0.000   0.000
  0.000   0.000   0.000  -0.000   0.000   0.000   0.000   3.295  -0.000  -0.000   0.000  -0.000  -2.419  -0.000   0.000   0.000
  0.000   0.000  -0.000  -0.000   0.000   0.000   0.000  -0.000   3.519   0.000   0.170  -0.000   0.000  -2.196  -0.000  -0.088
  0.000   0.000   0.000   0.000   0.000  -0.000  -0.000  -0.000   0.000   3.085   0.000  -0.000  -0.000  -0.000  -1.882   0.000
  0.000   0.000  -0.000   0.000   0.000   0.000   0.000   0.000   0.170   0.000   3.337   0.000   0.000  -0.088   0.000  -2.104
  0.000   0.000   0.000   0.000   0.000   0.000  -1.871  -0.000  -0.000  -0.000   0.000   2.086  -0.000  -0.000   0.000   0.000
 -0.000   0.000  -0.000   0.000   0.000   0.000  -0.000  -2.419   0.000  -0.000   0.000  -0.000   2.835   0.000   0.000   0.000
  0.000  -0.000  -0.000   0.000  -0.000   0.000   0.000  -0.000  -2.196  -0.000  -0.088  -0.000   0.000   2.150  -0.000   0.015
  0.000   0.000  -0.000  -0.000  -0.000   0.000   0.000   0.000  -0.000  -1.882   0.000   0.000   0.000  -0.000   2.093  -0.000
  0.000  -0.000   0.000   0.000  -0.000  -0.000   0.000   0.000  -0.088   0.000  -2.104   0.000   0.000   0.015  -0.000   2.139
  0.000  -0.000   0.000   0.000   0.000   0.000   0.000   0.000  -0.122   0.000   0.207  -0.000   0.000   0.093   0.000  -0.158
 -0.000   0.000   0.000  -0.000  -0.000   0.000   0.000   0.000   0.008  -0.000  -0.013   0.000   0.000  -0.005   0.000   0.009
 total augmentation occupancy for first ion, spin component:           2
 -0.002   0.000   0.000  -0.009   0.000   0.000   0.000  -0.000  -0.000   0.000   0.000   0.000   0.000  -0.000   0.000   0.000
  0.000  -0.002   0.000  -0.000  -0.009   0.000   0.000   0.000  -0.000   0.000   0.000   0.000   0.000   0.000   0.000  -0.000
  0.000   0.000  -0.002  -0.000   0.000  -0.010   0.000   0.000   0.000   0.000   0.000   0.000   0.000  -0.000  -0.000   0.000
 -0.009  -0.000  -0.000  -0.005  -0.000  -0.000   0.000  -0.000   0.000  -0.000  -0.000  -0.000   0.000  -0.000   0.000   0.000
  0.000  -0.009   0.000  -0.000  -0.005   0.000  -0.000   0.000   0.000   0.000  -0.000  -0.000  -0.000  -0.000   0.000  -0.000
  0.000   0.000  -0.010  -0.000   0.000  -0.010   0.000   0.000   0.000  -0.000   0.000  -0.000   0.000   0.000  -0.000   0.000
  0.000   0.000   0.000   0.000  -0.000   0.000   2.373   0.000  -0.000  -0.000  -0.000  -1.045  -0.000   0.000   0.000  -0.000
 -0.000   0.000   0.000  -0.000   0.000   0.000   0.000   2.151  -0.000   0.000   0.000  -0.000  -0.817  -0.000   0.000   0.000
 -0.000  -0.000   0.000   0.000   0.000   0.000  -0.000  -0.000   2.681   0.000   0.088  -0.000   0.000  -1.133  -0.000  -0.092
  0.000   0.000   0.000  -0.000   0.000  -0.000  -0.000   0.000   0.000   2.387  -0.000   0.000   0.000   0.000  -1.055   0.000
  0.000   0.000   0.000  -0.000  -0.000   0.000  -0.000   0.000   0.088  -0.000   2.592   0.000   0.000  -0.092   0.000  -1.035
  0.000   0.000   0.000  -0.000  -0.000  -0.000  -1.045  -0.000  -0.000   0.000   0.000   0.250   0.000  -0.000   0.000   0.000
  0.000   0.000   0.000   0.000  -0.000   0.000  -0.000  -0.817   0.000   0.000   0.000   0.000   0.034  -0.000   0.000   0.000
 -0.000   0.000  -0.000  -0.000  -0.000   0.000   0.000  -0.000  -1.133   0.000  -0.092  -0.000  -0.000   0.327   0.000   0.106
  0.000   0.000  -0.000   0.000   0.000  -0.000   0.000   0.000  -0.000  -1.055   0.000   0.000   0.000   0.000   0.256  -0.000
  0.000  -0.000   0.000   0.000  -0.000   0.000  -0.000   0.000  -0.092   0.000  -1.035   0.000   0.000   0.106  -0.000   0.210
 -0.000   0.000   0.000   0.000  -0.000   0.000   0.000  -0.000  -0.032   0.000   0.051   0.000   0.000   0.032  -0.000  -0.053
  0.000  -0.000  -0.000   0.000   0.000   0.000   0.000   0.000   0.003  -0.000  -0.005   0.000   0.000  -0.001  -0.000   0.001


------------------------ aborting loop because EDIFF is reached ----------------------------------------





 total charge

# of ion       s       p       d       tot
------------------------------------------
    1        0.369   6.370   6.075  12.814
    2        0.368   6.370   6.075  12.813
    3        0.369   6.370   6.075  12.814
    4        0.369   6.370   6.075  12.814
    5        0.369   6.369   6.075  12.814
    6        0.369   6.369   6.075  12.814
    7        0.369   6.370   6.075  12.814
    8        0.368   6.370   6.075  12.813
    9        0.369   6.370   6.075  12.814
   10        0.802   0.792   8.071   9.665
   11        0.802   0.792   8.071   9.665
   12        0.802   0.792   8.071   9.665
--------------------------------------------------
tot          5.723  59.703  78.889 144.316



 magnetization (x)

# of ion       s       p       d       tot
------------------------------------------
    1       -0.003  -0.015   2.585   2.567
    2       -0.003  -0.015   2.586   2.567
    3       -0.003  -0.015   2.585   2.567
    4       -0.003  -0.015   2.586   2.568
    5       -0.003  -0.015   2.578   2.560
    6       -0.003  -0.015   2.578   2.560
    7       -0.003  -0.015   2.585   2.567
    8       -0.003  -0.015   2.586   2.567
    9       -0.003  -0.015   2.585   2.567
   10       -0.039  -0.099   0.412   0.274
   11       -0.039  -0.099   0.410   0.271
   12       -0.039  -0.099   0.410   0.271
--------------------------------------------------
tot         -0.144  -0.435  24.486  23.907
 
    CHARGE:  cpu time      0.1425: real time      0.1432
    FORLOC:  cpu time      0.0016: real time      0.0016
    FORNL :  cpu time      0.6803: real time      0.6841
    STRESS:  cpu time      4.1094: real time      4.1422
    FORCOR:  cpu time      0.0199: real time      0.0643
    FORHAR:  cpu time      0.0026: real time      0.0026
    MIXING:  cpu time      0.0025: real time      0.0025
    OFIELD:  cpu time      0.0017: real time      0.0020

  FORCE on cell =-STRESS in cart. coord.  units (eV):
  Direction    XX          YY          ZZ          XY          YZ          ZX
  --------------------------------------------------------------------------------------
  Alpha Z  1173.72503  1173.72503  1173.72503
  Ewald   -6179.46380 -6179.46380 -6179.80692    -0.00000     0.00000     0.00000
  Hartree  1810.72338  1810.72338  1810.48041    -0.00000    -0.00000    -0.00000
  E(xc)    -946.95640  -946.95640  -946.95671    -0.00000    -0.00000    -0.00000
  Local    1215.02647  1215.02647  1215.69462    -0.00000    -0.00000     0.00000
  n-local  -198.61858  -212.64173  -205.66193    16.19526    -0.06991     0.04270
  augment  1436.40656  1436.40656  1436.38064    -0.00000     0.00000     0.00000
  Kinetic  1714.95687  1705.04439  1709.95433     0.89646     0.39410     0.85841
  Fock        0.00000     0.00000     0.00000     0.00000     0.00000     0.00000
  -------------------------------------------------------------------------------------
  Total      13.83171    13.83171    13.80946     0.00000     0.00000    -0.00000
  in kB     152.83349   152.83349   152.58765     0.00000     0.00000    -0.00000
  external pressure =      152.75 kB  Pullay stress =        0.00 kB


 VOLUME and BASIS-vectors are now :
 -----------------------------------------------------------------------------
  energy-cutoff  :      520.00
  volume of cell :      145.00
      direct lattice vectors                 reciprocal lattice vectors
     3.642263825  0.000000000  0.000000000     0.274554521  0.000000000  0.000000000
     0.000000000  3.642263825  0.000000000     0.000000000  0.274554521  0.000000000
     0.000000000  0.000000000 10.930126828     0.000000000  0.000000000  0.091490247

  length of vectors
     3.642263825  3.642263825 10.930126828     0.274554521  0.274554521  0.091490247


 FORCES acting on ions
    electron-ion (+dipol)            ewald-force                    non-local-force                 convergence-correction
 -----------------------------------------------------------------------------------------------
   -.848E-13 0.934E-12 0.142E+00   -.404E-13 0.237E-13 -.177E+00   -.599E-20 -.222E-21 -.151E-02   0.635E-13 0.320E-13 0.362E-01
   -.849E-13 0.108E-11 0.315E-11   0.270E-14 0.582E-14 0.284E-12   -.169E-26 0.562E-24 0.599E-24   0.609E-13 0.335E-13 -.148E-11
   -.842E-13 0.789E-12 -.142E+00   0.745E-15 0.157E-13 0.177E+00   0.690E-20 -.148E-20 0.151E-02   0.613E-13 0.409E-13 -.362E-01
   0.977E-12 0.787E-11 0.466E-11   0.102E-13 0.319E-15 -.114E-12   0.123E-23 -.223E-23 -.105E-24   -.152E-12 -.154E-13 0.115E-11
   0.992E-12 0.702E-11 -.858E+00   -.351E-13 -.255E-14 0.857E+00   0.189E-22 0.571E-21 -.106E-02   -.158E-12 -.202E-13 0.162E-02
   0.995E-12 0.705E-11 0.858E+00   0.197E-13 -.938E-14 -.857E+00   0.109E-21 -.330E-21 0.106E-02   -.166E-12 -.190E-13 -.162E-02
   0.100E-11 -.629E-13 0.142E+00   0.377E-13 -.184E-13 -.177E+00   0.175E-20 -.774E-20 -.151E-02   -.165E-12 -.338E-14 0.362E-01
   0.990E-12 -.691E-13 0.590E-11   0.178E-13 -.168E-13 0.284E-12   -.350E-24 0.827E-26 -.262E-24   -.163E-12 -.355E-14 -.150E-11
   0.988E-12 -.705E-13 -.142E+00   0.326E-13 -.112E-13 0.177E+00   -.172E-20 -.271E-20 0.151E-02   -.154E-12 -.575E-14 -.362E-01
   -.512E-13 -.505E-13 -.299E-12   -.173E-13 -.633E-14 0.000E+00   0.334E-24 -.584E-24 0.136E-24   0.559E-13 -.214E-14 0.883E-12
   -.516E-13 -.526E-13 -.527E+00   0.700E-13 0.131E-13 0.523E+00   0.386E-20 -.305E-20 0.647E-02   0.559E-13 -.264E-14 0.801E-03
   -.523E-13 -.498E-13 0.527E+00   -.483E-13 -.970E-14 -.523E+00   -.140E-21 0.176E-20 -.647E-02   0.579E-13 -.304E-14 -.801E-03
 -----------------------------------------------------------------------------------------------
   0.553E-11 0.244E-10 0.276E-10   0.504E-13 -.157E-13 0.145E-12   0.479E-20 -.132E-19 0.000E+00   -.603E-12 0.313E-13 -.251E-12
 
 
 POSITION                                       TOTAL-FORCE (eV/Angst)
 -----------------------------------------------------------------------------------
      0.00000      1.82113      1.82180         0.000000      0.000000     -0.000190
      0.00000      1.82113      5.46506         0.000000     -0.000000      0.000000
      0.00000      1.82113      9.10833         0.000000     -0.000000      0.000190
      1.82113      1.82113      0.00000         0.000000     -0.000000      0.000000
      1.82113      1.82113      3.64293         0.000000      0.000000     -0.001207
      1.82113      1.82113      7.28719        -0.000000      0.000000      0.001207
      1.82113      0.00000      1.82180         0.000000     -0.000000     -0.000190
      1.82113      0.00000      5.46506        -0.000000     -0.000000      0.000000
      1.82113      0.00000      9.10833         0.000000     -0.000000      0.000190
      0.00000      0.00000      0.00000         0.000000     -0.000000      0.000000
      0.00000      0.00000      3.64311         0.000000     -0.000000      0.002398
      0.00000      0.00000      7.28701        -0.000000     -0.000000     -0.002398
 -----------------------------------------------------------------------------------
    total drift:                                0.000000      0.000000      0.000000


--------------------------------------------------------------------------------------------------------



  FREE ENERGIE OF THE ION-ELECTRON SYSTEM (eV)
  ---------------------------------------------------
  free  energy   TOTEN  =       -93.01186204 eV

  energy  without entropy=      -93.01186204  energy(sigma->0) =      -93.01186204
 


--------------------------------------------------------------------------------------------------------


    POTLOK:  cpu time      0.0371: real time      0.0376


--------------------------------------------------------------------------------------------------------


     LOOP+:  cpu time    199.3669: real time    201.3263
 -----------------------------------------------------------------------------
|                                                                             |
|           W    W    AA    RRRRR   N    N  II  N    N   GGGG   !!!           |
|           W    W   A  A   R    R  NN   N  II  NN   N  G    G  !!!           |
|           W    W  A    A  R    R  N N  N  II  N N  N  G       !!!           |
|           W WW W  AAAAAA  RRRRR   N  N N  II  N  N N  G  GGG   !            |
|           WW  WW  A    A  R   R   N   NN  II  N   NN  G    G                |
|           W    W  A    A  R    R  N    N  II  N    N   GGGG   !!!           |
|                                                                             |
|     Tetrahedron method does not include variations of the Fermi             |
|     occupations, so forces and stress will be inaccurate. We suggest        |
|     using a different smearing scheme ISMEAR = 1 or 2 for metals in         |
|     relaxations.                                                            |
|                                                                             |
 -----------------------------------------------------------------------------

    4ORBIT:  cpu time      0.0000: real time      0.0000



 total charge

# of ion       s       p       d       tot
------------------------------------------
    1        0.369   6.370   6.075  12.814
    2        0.368   6.370   6.075  12.813
    3        0.369   6.370   6.075  12.814
    4        0.369   6.370   6.075  12.814
    5        0.369   6.369   6.075  12.814
    6        0.369   6.369   6.075  12.814
    7        0.369   6.370   6.075  12.814
    8        0.368   6.370   6.075  12.813
    9        0.369   6.370   6.075  12.814
   10        0.802   0.792   8.071   9.665
   11        0.802   0.792   8.071   9.665
   12        0.802   0.792   8.071   9.665
--------------------------------------------------
tot          5.723  59.703  78.889 144.316



 magnetization (x)

# of ion       s       p       d       tot
------------------------------------------
    1       -0.003  -0.015   2.585   2.567
    2       -0.003  -0.015   2.586   2.567
    3       -0.003  -0.015   2.585   2.567
    4       -0.003  -0.015   2.586   2.568
    5       -0.003  -0.015   2.578   2.560
    6       -0.003  -0.015   2.578   2.560
    7       -0.003  -0.015   2.585   2.567
    8       -0.003  -0.015   2.586   2.567
    9       -0.003  -0.015   2.585   2.567
   10       -0.039  -0.099   0.412   0.274
   11       -0.039  -0.099   0.410   0.271
   12       -0.039  -0.099   0.410   0.271
--------------------------------------------------
tot         -0.144  -0.435  24.486  23.907
 
 BZINTS: Fermi energy:   10.715580;  156.000000 electrons
         Band energy:-0.148254E+04;  BLOECHL correction:   -0.068959

 total amount of memory used by VASP MPI-rank0   178777. kBytes
=======================================================================

   base      :      30000. kBytes
   nonl-proj :      95975. kBytes
   fftplans  :        888. kBytes
   grid      :       6813. kBytes
   one-center:        373. kBytes
   wavefun   :      44728. kBytes
 
  
  
 General timing and accounting informations for this job:
 ========================================================
  
                  Total CPU time used (sec):      218.005
                            User time (sec):      209.758
                          System time (sec):        8.247
                         Elapsed time (sec):      226.028
  
                   Maximum memory used (kb):      866736.
                   Average memory used (kb):          N/A
  
                          Minor page faults:       189632
                          Major page faults:          263
                 Voluntary context switches:         7305
