       N       E                     dE             d eps       ncg     rms          ort
DAV:   1     0.173482633470E+04    0.17348E+04   -0.93987E+04  8064   0.246E+03
DAV:   2     0.117095785522E+02   -0.17231E+04   -0.16939E+04  8064   0.598E+02
DAV:   3    -0.102022707020E+03   -0.11373E+03   -0.11245E+03  8064   0.158E+02
DAV:   4    -0.104509547262E+03   -0.24868E+01   -0.24848E+01  8064   0.246E+01
DAV:   5    -0.104566546348E+03   -0.56999E-01   -0.56997E-01  8064   0.386E+00
SDA:   6    -0.478790591568E+02    0.56687E+02   -0.56997E-01  8064   0.544E+03 0.000E+00
CGA:   7    -0.728875964778E+02   -0.25009E+02   -0.21513E+02  8064   0.288E+03 0.106E+03
CGA:   8    -0.854159505284E+02   -0.12528E+02   -0.10397E+02  8064   0.412E+02 0.104E+03
CGA:   9    -0.892568290531E+02   -0.38409E+01   -0.39367E+01  8064   0.391E+02-0.599E+00
CGA:  10    -0.901123950760E+02   -0.85557E+00   -0.62773E+00  8064   0.133E+02 0.147E+02
CGA:  11    -0.906035768741E+02   -0.49118E+00   -0.47104E+00  8064   0.149E+02 0.782E+00
CGA:  12    -0.913501556183E+02   -0.74658E+00   -0.72440E+00  8064   0.260E+02 0.513E+00
CGA:  13    -0.916630932448E+02   -0.31294E+00   -0.20570E+00  8064   0.141E+02 0.154E+02
CGA:  14    -0.919536853389E+02   -0.29059E+00   -0.32086E+00  8064   0.252E+01-0.120E+01
CGA:  15    -0.922749534398E+02   -0.32127E+00   -0.32141E+00  8064   0.400E+01 0.177E-01
CGA:  16    -0.924854280457E+02   -0.21047E+00   -0.21655E+00  8064   0.279E+01-0.736E-01
CGA:  17    -0.926287955080E+02   -0.14337E+00   -0.14546E+00  8064   0.118E+01-0.278E-01
CGA:  18    -0.927797174553E+02   -0.15092E+00   -0.15107E+00  8064   0.246E+01 0.165E-01
CGA:  19    -0.928781765360E+02   -0.98459E-01   -0.10801E+00  8064   0.463E+00-0.197E+00
CGA:  20    -0.929016487553E+02   -0.23472E-01   -0.23533E-01  8064   0.298E+00 0.305E-03
CGA:  21    -0.929196102430E+02   -0.17961E-01   -0.18091E-01  8064   0.184E+00-0.304E-03
CGA:  22    -0.929336784139E+02   -0.14068E-01   -0.14119E-01  8064   0.167E+00 0.401E-03
CGA:  23    -0.929434150503E+02   -0.97366E-02   -0.98412E-02  8064   0.111E+00-0.533E-03
CGA:  24    -0.929523139998E+02   -0.88989E-02   -0.89178E-02  8064   0.752E-01 0.205E-03
CGA:  25    -0.929553635944E+02   -0.30496E-02   -0.30552E-02  8064   0.257E-01-0.915E-04
CGA:  26    -0.929581448835E+02   -0.27813E-02   -0.27809E-02  8064   0.549E-01-0.111E-03
CGA:  27    -0.929611244301E+02   -0.29795E-02   -0.29790E-02  8064   0.161E-01-0.359E-03
CGA:  28    -0.929617905188E+02   -0.66609E-03   -0.66257E-03  8064   0.832E-02-0.494E-04
CGA:  29    -0.929625323695E+02   -0.74185E-03   -0.74119E-03  8064   0.973E-02-0.423E-04
CGA:  30    -0.929632427104E+02   -0.71034E-03   -0.71021E-03  8064   0.840E-02-0.229E-04
CGA:  31    -0.929637757008E+02   -0.53299E-03   -0.53389E-03  8064   0.459E-02 0.433E-05
CGA:  32    -0.929641230277E+02   -0.34733E-03   -0.34811E-03  8064   0.429E-02 0.334E-04
CGA:  33    -0.929643576184E+02   -0.23459E-03   -0.23604E-03  8064   0.144E-02 0.288E-04
CGA:  34    -0.929644660625E+02   -0.10844E-03   -0.10866E-03  8064   0.219E-02 0.128E-04
CGA:  35    -0.929646547284E+02   -0.18867E-03   -0.18878E-03  8064   0.137E-02 0.129E-04
CGA:  36    -0.929647043166E+02   -0.49588E-04   -0.49584E-04  8064   0.471E-03 0.378E-05
CGA:  37    -0.929647432513E+02   -0.38935E-04   -0.38884E-04  8064   0.556E-03-0.231E-05
CGA:  38    -0.929647793812E+02   -0.36130E-04   -0.35976E-04  8064   0.378E-03-0.440E-05
CGA:  39    -0.929648027499E+02   -0.23369E-04   -0.23209E-04  8064   0.182E-03-0.442E-05
CGA:  40    -0.929648148453E+02   -0.12095E-04   -0.11966E-04  8064   0.182E-03-0.442E-05
CGA:  41    -0.929648282052E+02   -0.13360E-04   -0.13225E-04  8064   0.994E-04-0.836E-05
CGA:  42    -0.929648340178E+02   -0.58125E-05   -0.56226E-05  8064   0.959E-04-0.540E-05
CGA:  43    -0.929648409019E+02   -0.68841E-05   -0.67696E-05  8064   0.650E-04-0.854E-05
SDA:  44    -0.929648434145E+02   -0.25126E-05   -0.23722E-05  8064   0.270E-04-0.171E-05
CGA:  45    -0.929648442192E+02   -0.80471E-06   -0.84166E-06  8064   0.147E-04 0.204E-05
CGA:  46    -0.929648459992E+02   -0.17800E-05   -0.16906E-05  8064   0.108E-04 0.473E-05
CGA:  47    -0.929648471179E+02   -0.11187E-05   -0.11259E-05  8064   0.110E-04 0.309E-05
CGA:  48    -0.929648477504E+02   -0.63252E-06   -0.66164E-06  8064   0.567E-05 0.180E-05
   1 F= -.92964848E+02 E0= -.92966538E+02  d E =-.929648E+02  mag=     2.8988
       N       E                     dE             d eps       ncg     rms          ort
SDA:   1    -0.929550355239E+02    0.98116E-02    0.00000E+00  8064   0.443E-01 0.000E+00
CGA:   2    -0.929597742980E+02   -0.47388E-02   -0.47385E-02  8064   0.384E-01 0.534E-05
CGA:   3    -0.929610354818E+02   -0.12612E-02   -0.12604E-02  8064   0.160E-01 0.188E-04
CGA:   4    -0.929636876697E+02   -0.26522E-02   -0.26512E-02  8064   0.210E-01 0.948E-05
CGA:   5    -0.929642633344E+02   -0.57566E-03   -0.57589E-03  8064   0.474E-02-0.244E-05
CGA:   6    -0.929646657414E+02   -0.40241E-03   -0.40241E-03  8064   0.245E-02-0.982E-06
CGA:   7    -0.929649231987E+02   -0.25746E-03   -0.25752E-03  8064   0.187E-02-0.266E-05
CGA:   8    -0.929649773575E+02   -0.54159E-04   -0.54117E-04  8064   0.424E-03-0.504E-06
CGA:   9    -0.929650403037E+02   -0.62946E-04   -0.63031E-04  8064   0.660E-03-0.131E-05
CGA:  10    -0.929650586806E+02   -0.18377E-04   -0.18358E-04  8064   0.123E-03-0.448E-06
CGA:  11    -0.929650707769E+02   -0.12096E-04   -0.12096E-04  8064   0.119E-03 0.287E-07
CGA:  12    -0.929650818964E+02   -0.11120E-04   -0.11116E-04  8064   0.105E-03 0.315E-06
CGA:  13    -0.929650853801E+02   -0.34837E-05   -0.34906E-05  8064   0.278E-04 0.157E-06
CGA:  14    -0.929650886593E+02   -0.32792E-05   -0.32821E-05  8064   0.397E-04-0.802E-07
CGA:  15    -0.929650903615E+02   -0.17022E-05   -0.17010E-05  8064   0.252E-04-0.266E-07
CGA:  16    -0.929650917604E+02   -0.13989E-05   -0.14003E-05  8064   0.505E-05 0.840E-07
CGA:  17    -0.929650923675E+02   -0.60711E-06   -0.60184E-06  8064   0.114E-04 0.125E-06
   2 F= -.92965092E+02 E0= -.92966765E+02  d E =-.244617E-03  mag=     2.8939
       N       E                     dE             d eps       ncg     rms          ort
SDA:   1    -0.928745691015E+02    0.90523E-01    0.00000E+00  8064   0.425E+00 0.000E+00
CGA:   2    -0.929104205067E+02   -0.35851E-01   -0.35847E-01  8064   0.503E+00 0.387E-03
CGA:   3    -0.929288526994E+02   -0.18432E-01   -0.18392E-01  8064   0.124E+00 0.632E-03
CGA:   4    -0.929539045163E+02   -0.25052E-01   -0.25047E-01  8064   0.152E+00 0.212E-04
CGA:   5    -0.929581708283E+02   -0.42663E-02   -0.42639E-02  8064   0.477E-01 0.458E-04
CGA:   6    -0.929616095376E+02   -0.34387E-02   -0.34384E-02  8064   0.227E-01-0.142E-04
CGA:   7    -0.929638303089E+02   -0.22208E-02   -0.22206E-02  8064   0.210E-01 0.220E-05
CGA:   8    -0.929644902277E+02   -0.65992E-03   -0.65952E-03  8064   0.419E-02 0.372E-05
CGA:   9    -0.929649768466E+02   -0.48662E-03   -0.48670E-03  8064   0.461E-02-0.761E-06
CGA:  10    -0.929652149062E+02   -0.23806E-03   -0.23807E-03  8064   0.323E-02-0.472E-06
CGA:  11    -0.929653299089E+02   -0.11500E-03   -0.11505E-03  8064   0.687E-03-0.393E-06
CGA:  12    -0.929654588808E+02   -0.12897E-03   -0.12864E-03  8064   0.114E-02 0.308E-05
CGA:  13    -0.929654937970E+02   -0.34916E-04   -0.34951E-04  8064   0.253E-03 0.845E-06
CGA:  14    -0.929655237764E+02   -0.29979E-04   -0.30010E-04  8064   0.284E-03-0.810E-06
CGA:  15    -0.929655392716E+02   -0.15495E-04   -0.15490E-04  8064   0.279E-03-0.220E-06
CGA:  16    -0.929655517986E+02   -0.12527E-04   -0.12536E-04  8064   0.516E-04 0.245E-06
CGA:  17    -0.929655570174E+02   -0.52188E-05   -0.52018E-05  8064   0.857E-04 0.832E-06
CGA:  18    -0.929655610698E+02   -0.40524E-05   -0.40728E-05  8064   0.344E-04 0.640E-06
CGA:  19    -0.929655635758E+02   -0.25061E-05   -0.25038E-05  8064   0.176E-04-0.353E-06
CGA:  20    -0.929655647186E+02   -0.11428E-05   -0.11328E-05  8064   0.224E-04-0.739E-06
CGA:  21    -0.929655656740E+02   -0.95538E-06   -0.93276E-06  8064   0.477E-05-0.680E-06
   3 F= -.92965566E+02 E0= -.92967071E+02  d E =-.717924E-03  mag=     2.8802
       N       E                     dE             d eps       ncg     rms          ort
SDA:   1    -0.929538404130E+02    0.11724E-01    0.00000E+00  8064   0.865E-01 0.000E+00
CGA:   2    -0.929569796953E+02   -0.31393E-02   -0.31425E-02  8064   0.527E-01-0.578E-04
CGA:   3    -0.929611446637E+02   -0.41650E-02   -0.41651E-02  8064   0.160E-01-0.122E-04
CGA:   4    -0.929624877161E+02   -0.13431E-02   -0.13430E-02  8064   0.386E-01 0.101E-05
CGA:   5    -0.929647182509E+02   -0.22305E-02   -0.22307E-02  8064   0.519E-02 0.795E-05
CGA:   6    -0.929650629672E+02   -0.34472E-03   -0.34470E-03  8064   0.464E-02-0.471E-06
CGA:   7    -0.929653008081E+02   -0.23784E-03   -0.23785E-03  8064   0.288E-02-0.115E-05
CGA:   8    -0.929654992367E+02   -0.19843E-03   -0.19842E-03  8064   0.661E-03-0.151E-05
CGA:   9    -0.929655343650E+02   -0.35128E-04   -0.35111E-04  8064   0.741E-03-0.102E-05
CGA:  10    -0.929655781558E+02   -0.43791E-04   -0.43773E-04  8064   0.383E-03-0.144E-05
CGA:  11    -0.929656035398E+02   -0.25384E-04   -0.25384E-04  8064   0.179E-03-0.189E-06
CGA:  12    -0.929656103038E+02   -0.67639E-05   -0.67650E-05  8064   0.954E-04 0.747E-07
CGA:  13    -0.929656259646E+02   -0.15661E-04   -0.15584E-04  8064   0.529E-04 0.833E-06
CGA:  14    -0.929656278074E+02   -0.18428E-05   -0.18431E-05  8064   0.315E-04 0.238E-07
CGA:  15    -0.929656313309E+02   -0.35236E-05   -0.35266E-05  8064   0.350E-04-0.882E-07
CGA:  16    -0.929656328628E+02   -0.15319E-05   -0.15321E-05  8064   0.184E-04 0.243E-07
CGA:  17    -0.929656337696E+02   -0.90672E-06   -0.90805E-06  8064   0.525E-05 0.835E-07
   4 F= -.92965634E+02 E0= -.92967080E+02  d E =-.786019E-03  mag=     2.8750
       N       E                     dE             d eps       ncg     rms          ort
SDA:   1    -0.929214740680E+02    0.44159E-01    0.00000E+00  8064   0.202E+00 0.000E+00
CGA:   2    -0.929390474592E+02   -0.17573E-01   -0.17573E-01  8064   0.270E+00 0.762E-05
CGA:   3    -0.929475220919E+02   -0.84746E-02   -0.84711E-02  8064   0.602E-01 0.629E-04
CGA:   4    -0.929595375931E+02   -0.12016E-01   -0.12013E-01  8064   0.982E-01 0.755E-05
CGA:   5    -0.929622269974E+02   -0.26894E-02   -0.26933E-02  8064   0.148E-01-0.100E-03
CGA:   6    -0.929641392213E+02   -0.19122E-02   -0.19124E-02  8064   0.129E-01-0.155E-05
CGA:   7    -0.929648039952E+02   -0.66477E-03   -0.66494E-03  8064   0.826E-02-0.373E-05
CGA:   8    -0.929650830330E+02   -0.27904E-03   -0.27903E-03  8064   0.218E-02-0.355E-05
CGA:   9    -0.929653743707E+02   -0.29134E-03   -0.29143E-03  8064   0.203E-02-0.164E-05
CGA:  10    -0.929654579230E+02   -0.83552E-04   -0.83553E-04  8064   0.996E-03-0.599E-06
CGA:  11    -0.929655094845E+02   -0.51561E-04   -0.51565E-04  8064   0.396E-03 0.350E-06
CGA:  12    -0.929655648121E+02   -0.55328E-04   -0.55240E-04  8064   0.754E-03 0.136E-05
CGA:  13    -0.929655861141E+02   -0.21302E-04   -0.21323E-04  8064   0.102E-03 0.384E-06
CGA:  14    -0.929656038175E+02   -0.17703E-04   -0.17784E-04  8064   0.177E-03-0.797E-06
CGA:  15    -0.929656105143E+02   -0.66968E-05   -0.66939E-05  8064   0.702E-04-0.746E-07
CGA:  16    -0.929656145016E+02   -0.39873E-05   -0.39991E-05  8064   0.295E-04 0.564E-06
CGA:  17    -0.929656170478E+02   -0.25461E-05   -0.25418E-05  8064   0.478E-04 0.646E-06
CGA:  18    -0.929656190385E+02   -0.19907E-05   -0.20024E-05  8064   0.126E-04 0.314E-06
CGA:  19    -0.929656203556E+02   -0.13171E-05   -0.13375E-05  8064   0.107E-04-0.672E-06
CGA:  20    -0.929656208318E+02   -0.47612E-06   -0.46281E-06  8064   0.748E-05-0.399E-06
   5 F= -.92965621E+02 E0= -.92966951E+02  d E =-.773081E-03  mag=     2.8653
       N       E                     dE             d eps       ncg     rms          ort
SDA:   1    -0.929579582528E+02    0.76621E-02    0.00000E+00  8064   0.359E-01 0.000E+00
CGA:   2    -0.929609033618E+02   -0.29451E-02   -0.29452E-02  8064   0.473E-01-0.697E-05
CGA:   3    -0.929624876386E+02   -0.15843E-02   -0.15846E-02  8064   0.109E-01-0.973E-05
CGA:   4    -0.929641444650E+02   -0.16568E-02   -0.16573E-02  8064   0.248E-01-0.686E-05
CGA:   5    -0.929649838182E+02   -0.83935E-03   -0.83883E-03  8064   0.429E-02 0.248E-05
CGA:   6    -0.929652755941E+02   -0.29178E-03   -0.29178E-03  8064   0.196E-02-0.999E-07
CGA:   7    -0.929655095295E+02   -0.23394E-03   -0.23386E-03  8064   0.160E-02 0.143E-05
CGA:   8    -0.929655542899E+02   -0.44760E-04   -0.44789E-04  8064   0.465E-03 0.395E-06
CGA:   9    -0.929655950270E+02   -0.40737E-04   -0.40723E-04  8064   0.344E-03 0.120E-05
CGA:  10    -0.929656186988E+02   -0.23672E-04   -0.23675E-04  8064   0.341E-03 0.506E-06
CGA:  11    -0.929656318021E+02   -0.13103E-04   -0.13105E-04  8064   0.542E-04 0.546E-07
CGA:  12    -0.929656424023E+02   -0.10600E-04   -0.10599E-04  8064   0.109E-03 0.153E-07
CGA:  13    -0.929656455211E+02   -0.31188E-05   -0.31169E-05  8064   0.264E-04-0.502E-07
CGA:  14    -0.929656476045E+02   -0.20834E-05   -0.20834E-05  8064   0.209E-04-0.146E-06
CGA:  15    -0.929656495431E+02   -0.19386E-05   -0.19390E-05  8064   0.280E-04-0.585E-07
CGA:  16    -0.929656505487E+02   -0.10056E-05   -0.10018E-05  8064   0.419E-05-0.746E-07
CGA:  17    -0.929656510250E+02   -0.47630E-06   -0.47914E-06  8064   0.672E-05-0.515E-07
   6 F= -.92965651E+02 E0= -.92967024E+02  d E =-.803275E-03  mag=     2.8691
       N       E                     dE             d eps       ncg     rms          ort
SDA:   1    -0.929617527749E+02    0.38978E-02    0.00000E+00  8064   0.250E-01 0.000E+00
CGA:   2    -0.929627574887E+02   -0.10047E-02   -0.10046E-02  8064   0.210E-01 0.743E-06
CGA:   3    -0.929640953292E+02   -0.13378E-02   -0.13379E-02  8064   0.564E-02-0.102E-05
CGA:   4    -0.929645722806E+02   -0.47695E-03   -0.47697E-03  8064   0.120E-01-0.334E-05
CGA:   5    -0.929652982168E+02   -0.72594E-03   -0.72584E-03  8064   0.235E-02-0.575E-05
CGA:   6    -0.929654653383E+02   -0.16712E-03   -0.16712E-03  8064   0.121E-02-0.299E-06
CGA:   7    -0.929655216760E+02   -0.56338E-04   -0.56350E-04  8064   0.118E-02 0.355E-06
CGA:   8    -0.929656043515E+02   -0.82675E-04   -0.82677E-04  8064   0.251E-03 0.139E-05
CGA:   9    -0.929656172232E+02   -0.12872E-04   -0.12876E-04  8064   0.222E-03 0.178E-06
CGA:  10    -0.929656313323E+02   -0.14109E-04   -0.14113E-04  8064   0.141E-03 0.470E-06
CGA:  11    -0.929656415150E+02   -0.10183E-04   -0.10183E-04  8064   0.469E-04 0.477E-06
CGA:  12    -0.929656434037E+02   -0.18887E-05   -0.18894E-05  8064   0.418E-04 0.276E-07
CGA:  13    -0.929656486105E+02   -0.52068E-05   -0.52122E-05  8064   0.191E-04-0.809E-07
CGA:  14    -0.929656494350E+02   -0.82454E-06   -0.82465E-06  8064   0.138E-04 0.107E-07
CGA:  15    -0.929656504413E+02   -0.10062E-05   -0.10069E-05  8064   0.924E-05 0.682E-07
CGA:  16    -0.929656512475E+02   -0.80624E-06   -0.80691E-06  8064   0.933E-05-0.623E-07
   7 F= -.92965651E+02 E0= -.92967058E+02  d E =-.803497E-03  mag=     2.8719
       N       E                     dE             d eps       ncg     rms          ort
SDA:   1    -0.929654036305E+02    0.24681E-03    0.00000E+00  8064   0.195E-02 0.000E+00
CGA:   2    -0.929654671371E+02   -0.63507E-04   -0.63512E-04  8064   0.118E-02-0.146E-06
CGA:   3    -0.929655509812E+02   -0.83844E-04   -0.83844E-04  8064   0.379E-03-0.134E-07
CGA:   4    -0.929655909718E+02   -0.39991E-04   -0.40002E-04  8064   0.433E-03-0.340E-06
CGA:   5    -0.929656179872E+02   -0.27015E-04   -0.27010E-04  8064   0.467E-03-0.834E-06
CGA:   6    -0.929656371046E+02   -0.19117E-04   -0.19099E-04  8064   0.547E-04-0.668E-06
CGA:   7    -0.929656415621E+02   -0.44575E-05   -0.44569E-05  8064   0.852E-04 0.697E-07
CGA:   8    -0.929656454807E+02   -0.39186E-05   -0.39210E-05  8064   0.280E-04 0.122E-06
CGA:   9    -0.929656474424E+02   -0.19617E-05   -0.19624E-05  8064   0.913E-05 0.256E-06
CGA:  10    -0.929656479463E+02   -0.50386E-06   -0.50478E-06  8064   0.126E-04 0.103E-06
   8 F= -.92965648E+02 E0= -.92967064E+02  d E =-.800196E-03  mag=     2.8727
       N       E                     dE             d eps       ncg     rms          ort
SDA:   1    -0.929622701283E+02    0.33773E-02    0.00000E+00  8064   0.137E-01 0.000E+00
CGA:   2    -0.929631482606E+02   -0.87813E-03   -0.87814E-03  8064   0.192E-01 0.465E-06
CGA:   3    -0.929641352871E+02   -0.98703E-03   -0.98706E-03  8064   0.527E-02 0.182E-05
CGA:   4    -0.929646670537E+02   -0.53177E-03   -0.53174E-03  8064   0.130E-01-0.203E-06
CGA:   5    -0.929652587962E+02   -0.59174E-03   -0.59176E-03  8064   0.179E-02 0.360E-06
CGA:   6    -0.929654321100E+02   -0.17331E-03   -0.17333E-03  8064   0.119E-02-0.498E-06
CGA:   7    -0.929655289405E+02   -0.96831E-04   -0.96837E-04  8064   0.131E-02-0.557E-06
CGA:   8    -0.929655738769E+02   -0.44936E-04   -0.44932E-04  8064   0.281E-03-0.136E-08
CGA:   9    -0.929656017616E+02   -0.27885E-04   -0.27893E-04  8064   0.467E-03-0.322E-06
CGA:  10    -0.929656219458E+02   -0.20184E-04   -0.20176E-04  8064   0.218E-03-0.364E-06
CGA:  11    -0.929656360558E+02   -0.14110E-04   -0.14111E-04  8064   0.741E-04-0.301E-07
CGA:  12    -0.929656485453E+02   -0.12490E-04   -0.12505E-04  8064   0.109E-03-0.165E-06
CGA:  13    -0.929656515401E+02   -0.29948E-05   -0.29976E-05  8064   0.206E-04 0.547E-07
CGA:  14    -0.929656540936E+02   -0.25535E-05   -0.25484E-05  8064   0.348E-04 0.104E-06
CGA:  15    -0.929656553099E+02   -0.12163E-05   -0.12164E-05  8064   0.103E-04 0.315E-08
CGA:  16    -0.929656560828E+02   -0.77286E-06   -0.77235E-06  8064   0.469E-05-0.405E-08
   9 F= -.92965656E+02 E0= -.92967057E+02  d E =-.813649E-05  mag=     2.8716
       N       E                     dE             d eps       ncg     rms          ort
SDA:   1    -0.929647578842E+02    0.89743E-03    0.00000E+00  8064   0.136E-01 0.000E+00
CGA:   2    -0.929650497954E+02   -0.29191E-03   -0.29192E-03  8064   0.211E-02-0.212E-05
CGA:   3    -0.929652952843E+02   -0.24549E-03   -0.24554E-03  8064   0.224E-02-0.124E-05
CGA:   4    -0.929653916435E+02   -0.96359E-04   -0.96350E-04  8064   0.149E-02-0.259E-06
CGA:   5    -0.929655093913E+02   -0.11775E-03   -0.11776E-03  8064   0.977E-03-0.103E-05
CGA:   6    -0.929656020746E+02   -0.92683E-04   -0.92678E-04  8064   0.297E-03 0.137E-06
CGA:   7    -0.929656164675E+02   -0.14393E-04   -0.14394E-04  8064   0.308E-03-0.282E-07
CGA:   8    -0.929656351327E+02   -0.18665E-04   -0.18665E-04  8064   0.140E-03 0.135E-06
CGA:   9    -0.929656454231E+02   -0.10290E-04   -0.10289E-04  8064   0.864E-04 0.306E-06
CGA:  10    -0.929656486220E+02   -0.31989E-05   -0.31997E-05  8064   0.425E-04 0.227E-07
CGA:  11    -0.929656547389E+02   -0.61168E-05   -0.61031E-05  8064   0.182E-04 0.177E-06
CGA:  12    -0.929656558413E+02   -0.11025E-05   -0.11032E-05  8064   0.283E-04-0.139E-07
CGA:  13    -0.929656577503E+02   -0.19089E-05   -0.19095E-05  8064   0.111E-04-0.598E-07
CGA:  14    -0.929656583892E+02   -0.63898E-06   -0.63847E-06  8064   0.621E-05-0.431E-07
  10 F= -.92965658E+02 E0= -.92967065E+02  d E =-.104430E-04  mag=     2.8719
