 vasp.6.4.3 19Mar24 (build Mar 26 2024 14:05:37) complex                        
  
 executed on             LinuxIFC date 2024.12.16  12:27:42
 running  128 mpi-ranks, on    1 nodes
 distrk:  each k-point on   32 cores,    4 groups
 distr:  one band on NCORE=   1 cores,   32 groups


--------------------------------------------------------------------------------------------------------


 INCAR:
   ALGO = All
   EDIFF = 1e-06
   EDIFFG = -0.01
   ENCUT = 520
   GGA = Pe
   IBRION = 2
   ISIF = 4
   ISMEAR = 1
   ISPIN = 2
   KPAR = 4
   LCHARG = True
   LORBIT = 11
   LREAL = False
   LWAVE = False
   MAGMOM = 1*-2.723 2*2.734 2*-2.759 1*2.887 1*-2.723 2*2.734 2*-0.081 1*0.249
   NELM = 200
   NSW = 100
   PREC = Accurate
   SIGMA = 0.2

 POTCAR:    PAW_PBE Fe_pv 02Aug2007               
 POTCAR:    PAW_PBE Pt 04Feb2005                  
 -----------------------------------------------------------------------------
|                                                                             |
|           W    W    AA    RRRRR   N    N  II  N    N   GGGG   !!!           |
|           W    W   A  A   R    R  NN   N  II  NN   N  G    G  !!!           |
|           W    W  A    A  R    R  N N  N  II  N N  N  G       !!!           |
|           W WW W  AAAAAA  RRRRR   N  N N  II  N  N N  G  GGG   !            |
|           WW  WW  A    A  R   R   N   NN  II  N   NN  G    G                |
|           W    W  A    A  R    R  N    N  II  N    N   GGGG   !!!           |
|                                                                             |
|     For optimal performance we recommend to set                             |
|       NCORE = 2 up to number-of-cores-per-socket                            |
|     NCORE specifies how many cores store one orbital (NPAR=cpu/NCORE).      |
|     This setting can greatly improve the performance of VASP for DFT.       |
|     The default, NCORE=1 might be grossly inefficient on modern             |
|     multi-core architectures or massively parallel machines. Do your        |
|     own testing! More info at https://www.vasp.at/wiki/index.php/NCORE      |
|     Unfortunately you need to use the default for GW and RPA                |
|     calculations (for HF NCORE is supported but not extensively tested      |
|     yet).                                                                   |
|                                                                             |
 -----------------------------------------------------------------------------

 POTCAR:    PAW_PBE Fe_pv 02Aug2007               
   SHA256 =  5d22e414b1f82158bf2c7ecb8b97b28fd0923e48cadc1c3bf74d524558f5dd32 Fe_pv/POTCAR          
   COPYR  = (c) Copyright 02Aug2007 Georg Kresse                                                    
   COPYR  = This file is part of the software VASP. Any use, copying, and all other rights are regul
   COPYR  = If you do not have a valid VASP license, you may not use, copy or distribute this file. 
   VRHFIN =Fe:  3pd7s1                                                                              
   LEXCH  = PE                                                                                      
   EATOM  =  2457.4239 eV,  180.6156 Ry                                                             
                                                                                                    
   TITEL  = PAW_PBE Fe_pv 02Aug2007                                                                 
   LULTRA =        F    use ultrasoft PP ?                                                          
   IUNSCR =        1    unscreen: 0-lin 1-nonlin 2-no                                               
   RPACOR =    1.750    partial core radius                                                         
   POMASS =   55.847; ZVAL   =   14.000    mass and valenz                                          
   RCORE  =    2.200    outmost cutoff radius                                                       
   RWIGS  =    2.200; RWIGS  =    1.164    wigner-seitz radius (au A)                               
   ENMAX  =  293.238; ENMIN  =  219.928 eV                                                          
   ICORE  =        3    local potential                                                             
   LCOR   =        T    correct aug charges                                                         
   LPAW   =        T    paw PP                                                                      
   EAUG   =  578.342                                                                                
   DEXC   =    0.000                                                                                
   RMAX   =    2.249    core radius for proj-oper                                                   
   RAUG   =    1.300    factor for augmentation sphere                                              
   RDEP   =    2.296    radius for radial grids                                                     
   RDEPT  =    1.766    core radius for aug-charge                                                  
                                                                                                    
   Atomic configuration                                                                             
    8 entries                                                                                       
     n  l   j            E        occ.                                                              
     1  0  0.50     -6993.8440   2.0000                                                             
     2  0  0.50      -814.6047   2.0000                                                             
     2  1  1.50      -693.3689   6.0000                                                             
     3  0  0.50       -89.4732   2.0000                                                             
     3  1  1.50       -55.6373   6.0000                                                             
     3  2  2.50        -3.8151   7.0000                                                             
     4  0  0.50        -4.2551   1.0000                                                             
     4  3  2.50        -1.3606   0.0000                                                             
   Description                                                                                      
     l       E           TYP  RCUT    TYP  RCUT                                                     
     1    -55.6372668     23  2.000                                                                 
     1     -5.4423304     23  2.000                                                                 
     2     -3.8151096     23  2.200                                                                 
     2     -5.1756922     23  2.200                                                                 
     0     -4.2550951     23  2.200                                                                 
     0     27.2116520     23  2.200                                                                 
     3     -1.3605826     23  2.200                                                                 
  local pseudopotential read in
  partial core-charges read in
  partial kinetic energy density read in
  atomic valenz-charges read in
  non local Contribution for L=           1  read in
    real space projection operators read in
  non local Contribution for L=           1  read in
    real space projection operators read in
  non local Contribution for L=           2  read in
    real space projection operators read in
  non local Contribution for L=           2  read in
    real space projection operators read in
  non local Contribution for L=           0  read in
    real space projection operators read in
  non local Contribution for L=           0  read in
    real space projection operators read in
    PAW grid and wavefunctions read in
 
   number of l-projection  operators is LMAX  =           6
   number of lm-projection operators is LMMAX =          18
 
 POTCAR:    PAW_PBE Pt 04Feb2005                  
   SHA256 =  3ed90460adef76debcff1cfb73ee1349b515b1a3db03439735b44de3a8db7dc8 Pt/POTCAR             
   COPYR  = (c) Copyright 04Feb2005 Georg Kresse                                                    
   COPYR  = This file is part of the software VASP. Any use, copying, and all other rights are regul
   COPYR  = If you do not have a valid VASP license, you may not use, copy or distribute this file. 
   VRHFIN =Pt: s1d9                                                                                 
   LEXCH  = PE                                                                                      
   EATOM  =   729.1176 eV,   53.5886 Ry                                                             
                                                                                                    
   TITEL  = PAW_PBE Pt 04Feb2005                                                                    
   LULTRA =        F    use ultrasoft PP ?                                                          
   IUNSCR =        1    unscreen: 0-lin 1-nonlin 2-no                                               
   RPACOR =    2.330    partial core radius                                                         
   POMASS =  195.080; ZVAL   =   10.000    mass and valenz                                          
   RCORE  =    2.600    outmost cutoff radius                                                       
   RWIGS  =    2.750; RWIGS  =    1.455    wigner-seitz radius (au A)                               
   ENMAX  =  230.283; ENMIN  =  172.712 eV                                                          
   ICORE  =        3    local potential                                                             
   LCOR   =        T    correct aug charges                                                         
   LPAW   =        T    paw PP                                                                      
   EAUG   =  358.966                                                                                
   DEXC   =    0.000                                                                                
   RMAX   =    2.658    core radius for proj-oper                                                   
   RAUG   =    1.300    factor for augmentation sphere                                              
   RDEP   =    2.761    radius for radial grids                                                     
   RDEPT  =    2.203    core radius for aug-charge                                                  
                                                                                                    
   Atomic configuration                                                                             
   16 entries                                                                                       
     n  l   j            E        occ.                                                              
     1  0  0.50    -78401.1885   2.0000                                                             
     2  0  0.50    -13770.7750   2.0000                                                             
     2  1  1.50    -11931.0468   6.0000                                                             
     3  0  0.50     -3234.7234   2.0000                                                             
     3  1  1.50     -2699.2216   6.0000                                                             
     3  2  2.50     -2119.5714  10.0000                                                             
     4  0  0.50      -695.1528   2.0000                                                             
     4  1  1.50      -519.6034   6.0000                                                             
     4  2  2.50      -306.6786  10.0000                                                             
     4  3  3.50       -70.1041  14.0000                                                             
     5  0  0.50      -101.7747   2.0000                                                             
     5  1  1.50       -55.9873   6.0000                                                             
     5  2  2.50        -6.1423   9.0000                                                             
     6  0  0.50        -5.6573   1.0000                                                             
     6  1  1.50        -6.8029   0.0000                                                             
     5  3  2.50        -1.3606   0.0000                                                             
   Description                                                                                      
     l       E           TYP  RCUT    TYP  RCUT                                                     
     2     -6.1423404     23  2.500                                                                 
     2     -7.5029230     23  2.500                                                                 
     0     -5.6573207     23  2.500                                                                 
     0      0.7416693     23  2.500                                                                 
     1     -2.7211652     23  2.600                                                                 
     1     20.4087390     23  2.600                                                                 
     3     -1.3605826     23  2.500                                                                 
  local pseudopotential read in
  partial core-charges read in
  partial kinetic energy density read in
  atomic valenz-charges read in
  non local Contribution for L=           2  read in
    real space projection operators read in
  non local Contribution for L=           2  read in
    real space projection operators read in
  non local Contribution for L=           0  read in
    real space projection operators read in
  non local Contribution for L=           0  read in
    real space projection operators read in
  non local Contribution for L=           1  read in
    real space projection operators read in
  non local Contribution for L=           1  read in
    real space projection operators read in
    PAW grid and wavefunctions read in
 
   number of l-projection  operators is LMAX  =           6
   number of lm-projection operators is LMMAX =          18
 
  PAW_PBE Fe_pv 02Aug2007               :
 energy of atom  1       EATOM=-2457.4239
 kinetic energy error for atom=    0.0062 (will be added to EATOM!!)
  PAW_PBE Pt 04Feb2005                  :
 energy of atom  2       EATOM= -729.1176
 kinetic energy error for atom=    0.0032 (will be added to EATOM!!)
 
 
 POSCAR: Fe9 Pt3
  positions in direct lattice
  velocities in cartesian coordinates


 exchange-correlation table for PE
   RHO(1)=    0.500       N(1)  =     2000
   RHO(2)=  100.500       N(2)  =     4000
 


--------------------------------------------------------------------------------------------------------


 ion  position               nearest neighbor table
   1  0.000  0.500  0.167-   5 2.62   5 2.62   4 2.62   4 2.62   7 2.68   7 2.68   7 2.68   7 2.68
                            10 2.73  10 2.73  11 2.73  11 2.73
   2  0.000  0.500  0.500-  11 2.68  11 2.68   8 2.68   8 2.68   8 2.68   8 2.68  12 2.71  12 2.71
                             6 2.71   6 2.71   5 2.79   5 2.79
   3  0.000  0.500  0.834-  10 2.68  10 2.68   9 2.68   9 2.68   9 2.68   9 2.68   6 2.71   6 2.71
                            12 2.71  12 2.71   4 2.79   4 2.79
   4  0.500  0.500  0.010-   1 2.62   7 2.62   7 2.62   1 2.62  10 2.68  10 2.68  10 2.68  10 2.68
                             9 2.79   3 2.79   9 2.79   3 2.79
   5  0.500  0.500  0.323-   1 2.62   7 2.62   7 2.62   1 2.62  11 2.68  11 2.68  11 2.68  11 2.68
                             8 2.79   2 2.79   8 2.79   2 2.79
   6  0.500  0.500  0.667-  12 2.68  12 2.68  12 2.68  12 2.68   9 2.71   3 2.71   3 2.71   9 2.71
                             2 2.71   8 2.71   2 2.71   8 2.71
   7  0.500  0.000  0.167-   5 2.62   5 2.62   4 2.62   4 2.62   1 2.68   1 2.68   1 2.68   1 2.68
                            10 2.73  10 2.73  11 2.73  11 2.73
   8  0.500  0.000  0.500-  11 2.68  11 2.68   2 2.68   2 2.68   2 2.68   2 2.68  12 2.71  12 2.71
                             6 2.71   6 2.71   5 2.79   5 2.79
   9  0.500  0.000  0.834-  10 2.68  10 2.68   3 2.68   3 2.68   3 2.68   3 2.68   6 2.71   6 2.71
                            12 2.71  12 2.71   4 2.79   4 2.79
  10  0.000  0.000  0.997-   3 2.68   9 2.68   3 2.68   9 2.68   4 2.68   4 2.68   4 2.68   4 2.68
                             1 2.73   7 2.73   7 2.73   1 2.73
  11  0.000  0.000  0.337-   2 2.68   8 2.68   2 2.68   8 2.68   5 2.68   5 2.68   5 2.68   5 2.68
                             1 2.73   7 2.73   7 2.73   1 2.73
  12  0.000  0.000  0.667-   6 2.68   6 2.68   6 2.68   6 2.68   2 2.71   8 2.71   8 2.71   2 2.71
                             3 2.71   3 2.71   9 2.71   9 2.71
 
  LATTYP: Found a simple tetragonal cell.
 ALAT       =     3.7853852715
 C/A-ratio  =     3.0603973978
  
  Lattice vectors:
  
 A1 = (   3.7853852715,   0.0000000000,   0.0000000000)
 A2 = (   0.0000000000,   3.7853852715,   0.0000000000)
 A3 = (   0.0000000000,   0.0000000000,  11.5847832346)


Analysis of symmetry for initial positions (statically):
=====================================================================
 Subroutine PRICEL returns:
 Original cell was already a primitive cell.
 

 Routine SETGRP: Setting up the symmetry group for a 
 simple tetragonal supercell.


 Subroutine GETGRP returns: Found  8 space group operations
 (whereof  8 operations were pure point group operations)
 out of a pool of 16 trial point group operations.


The static configuration has the point symmetry C_4v.


Analysis of symmetry for dynamics (positions and initial velocities):
=====================================================================
 Subroutine PRICEL returns:
 Original cell was already a primitive cell.
 

 Routine SETGRP: Setting up the symmetry group for a 
 simple tetragonal supercell.


 Subroutine GETGRP returns: Found  8 space group operations
 (whereof  8 operations were pure point group operations)
 out of a pool of 16 trial point group operations.


The dynamic configuration has the point symmetry C_4v.


Analysis of structural, dynamic, and magnetic symmetry:
=====================================================================
 Subroutine PRICEL returns:
 Original cell was already a primitive cell.
 

 Routine SETGRP: Setting up the symmetry group for a 
 simple tetragonal supercell.


 Subroutine GETGRP returns: Found  8 space group operations
 (whereof  8 operations were pure point group operations)
 out of a pool of 16 trial point group operations.


The overall configuration has the point symmetry C_4v.


 Subroutine INISYM returns: Found  8 space group operations
 (whereof  8 operations are pure point group operations),
 and found     1 'primitive' translations


----------------------------------------------------------------------------------------

                                     Primitive cell                                     

  volume of cell :     166.0000

  direct lattice vectors                    reciprocal lattice vectors
     3.785385272  0.000000000  0.000000000     0.264173903  0.000000000  0.000000000
     0.000000000  3.785385272  0.000000000     0.000000000  0.264173903  0.000000000
     0.000000000  0.000000000 11.584783235     0.000000000  0.000000000  0.086320130

  length of vectors
     3.785385272  3.785385272 11.584783235     0.264173903  0.264173903  0.086320130

  position of ions in fractional coordinates (direct lattice)
     0.000000000  0.500000000  0.166662591
     0.000000000  0.500000000  0.499754174
     0.000000000  0.500000000  0.833587041
     0.500000000  0.500000000  0.010460626
     0.500000000  0.500000000  0.322855304
     0.500000000  0.500000000  0.666676371
     0.500000000  0.000000000  0.166662591
     0.500000000  0.000000000  0.499754174
     0.500000000  0.000000000  0.833587041
     0.000000000  0.000000000  0.996825412
     0.000000000  0.000000000  0.336516625
     0.000000000  0.000000000  0.666658052

  ion indices of the primitive-cell ions
   primitive index   ion index
                 1           1
                 2           2
                 3           3
                 4           4
                 5           5
                 6           6
                 7           7
                 8           8
                 9           9
                10          10
                11          11
                12          12

----------------------------------------------------------------------------------------

 
 
 KPOINTS: pymatgen with grid density = 8800 / numb

Automatic generation of k-mesh.
 Grid dimensions read from file:
 generate k-points for:   13   13    4

 Generating k-lattice:

  Cartesian coordinates                     Fractional coordinates (reciprocal lattice)
     0.020321069  0.000000000  0.000000000     0.076923077  0.000000000  0.000000000
     0.000000000  0.020321069  0.000000000     0.000000000  0.076923077  0.000000000
     0.000000000  0.000000000  0.021580033     0.000000000  0.000000000  0.250000000

  Length of vectors
     0.020321069  0.020321069  0.021580033

  Shift w.r.t. Gamma in fractional coordinates (k-lattice)
     0.000000000  0.000000000  0.000000000

 
 Subroutine IBZKPT returns following result:
 ===========================================
 
 Found     84 irreducible k-points:
 
 Following reciprocal coordinates:
            Coordinates               Weight
  0.000000  0.000000  0.000000      1.000000
  0.076923  0.000000  0.000000      4.000000
  0.153846  0.000000  0.000000      4.000000
  0.230769  0.000000  0.000000      4.000000
  0.307692  0.000000  0.000000      4.000000
  0.384615  0.000000  0.000000      4.000000
  0.461538  0.000000  0.000000      4.000000
  0.076923  0.076923  0.000000      4.000000
  0.153846  0.076923  0.000000      8.000000
  0.230769  0.076923  0.000000      8.000000
  0.307692  0.076923  0.000000      8.000000
  0.384615  0.076923  0.000000      8.000000
  0.461538  0.076923  0.000000      8.000000
  0.153846  0.153846  0.000000      4.000000
  0.230769  0.153846  0.000000      8.000000
  0.307692  0.153846  0.000000      8.000000
  0.384615  0.153846  0.000000      8.000000
  0.461538  0.153846  0.000000      8.000000
  0.230769  0.230769  0.000000      4.000000
  0.307692  0.230769  0.000000      8.000000
  0.384615  0.230769  0.000000      8.000000
  0.461538  0.230769  0.000000      8.000000
  0.307692  0.307692  0.000000      4.000000
  0.384615  0.307692  0.000000      8.000000
  0.461538  0.307692  0.000000      8.000000
  0.384615  0.384615  0.000000      4.000000
  0.461538  0.384615  0.000000      8.000000
  0.461538  0.461538  0.000000      4.000000
  0.000000  0.000000  0.250000      2.000000
  0.076923  0.000000  0.250000      8.000000
  0.153846  0.000000  0.250000      8.000000
  0.230769  0.000000  0.250000      8.000000
  0.307692  0.000000  0.250000      8.000000
  0.384615  0.000000  0.250000      8.000000
  0.461538  0.000000  0.250000      8.000000
  0.076923  0.076923  0.250000      8.000000
  0.153846  0.076923  0.250000     16.000000
  0.230769  0.076923  0.250000     16.000000
  0.307692  0.076923  0.250000     16.000000
  0.384615  0.076923  0.250000     16.000000
  0.461538  0.076923  0.250000     16.000000
  0.153846  0.153846  0.250000      8.000000
  0.230769  0.153846  0.250000     16.000000
  0.307692  0.153846  0.250000     16.000000
  0.384615  0.153846  0.250000     16.000000
  0.461538  0.153846  0.250000     16.000000
  0.230769  0.230769  0.250000      8.000000
  0.307692  0.230769  0.250000     16.000000
  0.384615  0.230769  0.250000     16.000000
  0.461538  0.230769  0.250000     16.000000
  0.307692  0.307692  0.250000      8.000000
  0.384615  0.307692  0.250000     16.000000
  0.461538  0.307692  0.250000     16.000000
  0.384615  0.384615  0.250000      8.000000
  0.461538  0.384615  0.250000     16.000000
  0.461538  0.461538  0.250000      8.000000
  0.000000  0.000000  0.500000      1.000000
  0.076923  0.000000  0.500000      4.000000
  0.153846  0.000000  0.500000      4.000000
  0.230769  0.000000  0.500000      4.000000
  0.307692  0.000000  0.500000      4.000000
  0.384615  0.000000  0.500000      4.000000
  0.461538  0.000000  0.500000      4.000000
  0.076923  0.076923  0.500000      4.000000
  0.153846  0.076923  0.500000      8.000000
  0.230769  0.076923  0.500000      8.000000
  0.307692  0.076923  0.500000      8.000000
  0.384615  0.076923  0.500000      8.000000
  0.461538  0.076923  0.500000      8.000000
  0.153846  0.153846  0.500000      4.000000
  0.230769  0.153846  0.500000      8.000000
  0.307692  0.153846  0.500000      8.000000
  0.384615  0.153846  0.500000      8.000000
  0.461538  0.153846  0.500000      8.000000
  0.230769  0.230769  0.500000      4.000000
  0.307692  0.230769  0.500000      8.000000
  0.384615  0.230769  0.500000      8.000000
  0.461538  0.230769  0.500000      8.000000
  0.307692  0.307692  0.500000      4.000000
  0.384615  0.307692  0.500000      8.000000
  0.461538  0.307692  0.500000      8.000000
  0.384615  0.384615  0.500000      4.000000
  0.461538  0.384615  0.500000      8.000000
  0.461538  0.461538  0.500000      4.000000
 
 Following cartesian coordinates:
            Coordinates               Weight
  0.000000  0.000000  0.000000      1.000000
  0.020321  0.000000  0.000000      4.000000
  0.040642  0.000000  0.000000      4.000000
  0.060963  0.000000  0.000000      4.000000
  0.081284  0.000000  0.000000      4.000000
  0.101605  0.000000  0.000000      4.000000
  0.121926  0.000000  0.000000      4.000000
  0.020321  0.020321  0.000000      4.000000
  0.040642  0.020321  0.000000      8.000000
  0.060963  0.020321  0.000000      8.000000
  0.081284  0.020321  0.000000      8.000000
  0.101605  0.020321  0.000000      8.000000
  0.121926  0.020321  0.000000      8.000000
  0.040642  0.040642  0.000000      4.000000
  0.060963  0.040642  0.000000      8.000000
  0.081284  0.040642  0.000000      8.000000
  0.101605  0.040642  0.000000      8.000000
  0.121926  0.040642  0.000000      8.000000
  0.060963  0.060963  0.000000      4.000000
  0.081284  0.060963  0.000000      8.000000
  0.101605  0.060963  0.000000      8.000000
  0.121926  0.060963  0.000000      8.000000
  0.081284  0.081284  0.000000      4.000000
  0.101605  0.081284  0.000000      8.000000
  0.121926  0.081284  0.000000      8.000000
  0.101605  0.101605  0.000000      4.000000
  0.121926  0.101605  0.000000      8.000000
  0.121926  0.121926  0.000000      4.000000
  0.000000  0.000000  0.021580      2.000000
  0.020321  0.000000  0.021580      8.000000
  0.040642  0.000000  0.021580      8.000000
  0.060963  0.000000  0.021580      8.000000
  0.081284  0.000000  0.021580      8.000000
  0.101605  0.000000  0.021580      8.000000
  0.121926  0.000000  0.021580      8.000000
  0.020321  0.020321  0.021580      8.000000
  0.040642  0.020321  0.021580     16.000000
  0.060963  0.020321  0.021580     16.000000
  0.081284  0.020321  0.021580     16.000000
  0.101605  0.020321  0.021580     16.000000
  0.121926  0.020321  0.021580     16.000000
  0.040642  0.040642  0.021580      8.000000
  0.060963  0.040642  0.021580     16.000000
  0.081284  0.040642  0.021580     16.000000
  0.101605  0.040642  0.021580     16.000000
  0.121926  0.040642  0.021580     16.000000
  0.060963  0.060963  0.021580      8.000000
  0.081284  0.060963  0.021580     16.000000
  0.101605  0.060963  0.021580     16.000000
  0.121926  0.060963  0.021580     16.000000
  0.081284  0.081284  0.021580      8.000000
  0.101605  0.081284  0.021580     16.000000
  0.121926  0.081284  0.021580     16.000000
  0.101605  0.101605  0.021580      8.000000
  0.121926  0.101605  0.021580     16.000000
  0.121926  0.121926  0.021580      8.000000
  0.000000  0.000000  0.043160      1.000000
  0.020321  0.000000  0.043160      4.000000
  0.040642  0.000000  0.043160      4.000000
  0.060963  0.000000  0.043160      4.000000
  0.081284  0.000000  0.043160      4.000000
  0.101605  0.000000  0.043160      4.000000
  0.121926  0.000000  0.043160      4.000000
  0.020321  0.020321  0.043160      4.000000
  0.040642  0.020321  0.043160      8.000000
  0.060963  0.020321  0.043160      8.000000
  0.081284  0.020321  0.043160      8.000000
  0.101605  0.020321  0.043160      8.000000
  0.121926  0.020321  0.043160      8.000000
  0.040642  0.040642  0.043160      4.000000
  0.060963  0.040642  0.043160      8.000000
  0.081284  0.040642  0.043160      8.000000
  0.101605  0.040642  0.043160      8.000000
  0.121926  0.040642  0.043160      8.000000
  0.060963  0.060963  0.043160      4.000000
  0.081284  0.060963  0.043160      8.000000
  0.101605  0.060963  0.043160      8.000000
  0.121926  0.060963  0.043160      8.000000
  0.081284  0.081284  0.043160      4.000000
  0.101605  0.081284  0.043160      8.000000
  0.121926  0.081284  0.043160      8.000000
  0.101605  0.101605  0.043160      4.000000
  0.121926  0.101605  0.043160      8.000000
  0.121926  0.121926  0.043160      4.000000
 


--------------------------------------------------------------------------------------------------------




 Dimension of arrays:
   k-points           NKPTS =     84   k-points in BZ     NKDIM =     84   number of bands    NBANDS=     96
   number of dos      NEDOS =    301   number of ions     NIONS =     12
   non local maximal  LDIM  =      6   non local SUM 2l+1 LMDIM =     18
   total plane-waves  NPLWV =  70560
   max r-space proj   IRMAX =      1   max aug-charges    IRDMAX=  25941
   dimension x,y,z NGX =    28 NGY =   28 NGZ =   90
   dimension x,y,z NGXF=    56 NGYF=   56 NGZF=  180
   support grid    NGXF=    56 NGYF=   56 NGZF=  180
   ions per type =               9   3
   NGX,Y,Z   is equivalent  to a cutoff of  12.30, 12.30, 12.92 a.u.
   NGXF,Y,Z  is equivalent  to a cutoff of  24.59, 24.59, 25.83 a.u.

 SYSTEM =  unknown system                          
 POSCAR =  Fe9 Pt3                                 

 Startparameter for this run:
   NWRITE =      2    write-flag & timer
   PREC   = accura    normal or accurate (medium, high low for compatibility)
   ISTART =      0    job   : 0-new  1-cont  2-samecut
   ICHARG =      2    charge: 1-file 2-atom 10-const
   ISPIN  =      2    spin polarized calculation?
   LNONCOLLINEAR =      F non collinear calculations
   LSORBIT =      F    spin-orbit coupling
   INIWAV =      1    electr: 0-lowe 1-rand  2-diag
   LASPH  =      F    aspherical Exc in radial PAW
 Electronic Relaxation 1
   ENCUT  =  520.0 eV  38.22 Ry    6.18 a.u.   7.04  7.04 21.54*2*pi/ulx,y,z
   ENINI  =  520.0     initial cutoff
   ENAUG  =  578.3 eV  augmentation charge cutoff
   NELM   =    200;   NELMIN=  2; NELMDL=  0     # of ELM steps 
   EDIFF  = 0.1E-05   stopping-criterion for ELM
   LREAL  =      F    real-space projection
   NLSPLINE    = F    spline interpolate recip. space projectors
   LCOMPAT=      F    compatible to vasp.4.4
   GGA_COMPAT  = T    GGA compatible to vasp.4.4-vasp.4.6
   LMAXPAW     = -100 max onsite density
   LMAXMIX     =    2 max onsite mixed and CHGCAR
   VOSKOWN=      0    Vosko Wilk Nusair interpolation
   ROPT   =    0.00000   0.00000
 Ionic relaxation
   EDIFFG = -.1E-01   stopping-criterion for IOM
   NSW    =    100    number of steps for IOM
   NBLOCK =      1;   KBLOCK =    100    inner block; outer block 
   IBRION =      2    ionic relax: 0-MD 1-quasi-New 2-CG
   NFREE  =      1    steps in history (QN), initial steepest desc. (CG)
   ISIF   =      4    stress and relaxation
   IWAVPR =     11    prediction:  0-non 1-charg 2-wave 3-comb
   ISYM   =      2    0-nonsym 1-usesym 2-fastsym
   LCORR  =      T    Harris-Foulkes like correction to forces

   POTIM  = 0.5000    time-step for ionic-motion
   TEIN   =    0.0    initial temperature
   TEBEG  =    0.0;   TEEND  =   0.0 temperature during run
   SMASS  =  -3.00    Nose mass-parameter (am)
   estimated Nose-frequenzy (Omega)   =  0.10E-29 period in steps = 0.13E+47 mass=  -0.327E-27a.u.
   SCALEE = 1.0000    scale energy and forces
   NPACO  =    256;   APACO  = 10.0  distance and # of slots for P.C.
   PSTRESS=    0.0 pullay stress

  Mass of Ions in am
   POMASS =  55.85195.08
  Ionic Valenz
   ZVAL   =  14.00 10.00
  Atomic Wigner-Seitz radii
   RWIGS  =  -1.00 -1.00
  virtual crystal weights 
   VCA    =   1.00  1.00
   NELECT =     156.0000    total number of electrons
   NUPDOWN=      -1.0000    fix difference up-down

 DOS related values:
   EMIN   =  10.00;   EMAX   =-10.00  energy-range for DOS
   EFERMI =   0.00;   METHOD = LEGACY      
   ISMEAR =     1;   SIGMA  =   0.20  broadening in eV -4-tet -1-fermi 0-gaus

 Electronic relaxation 2 (details)
   IALGO  =     58    algorithm
   LDIAG  =      T    sub-space diagonalisation (order eigenvalues)
   LSUBROT=      F    optimize rotation matrix (better conditioning)
   TURBO    =      0    0=normal 1=particle mesh
   IRESTART =      0    0=no restart 2=restart with 2 vectors
   NREBOOT  =      0    no. of reboots
   NMIN     =      0    reboot dimension
   EREF     =   0.00    reference energy to select bands
   IMIX   =      4    mixing-type and parameters
     AMIX     =   0.40;   BMIX     =  1.00
     AMIX_MAG =   1.60;   BMIX_MAG =  1.00
     AMIN     =   0.10
     WC   =   100.;   INIMIX=   1;  MIXPRE=   1;  MAXMIX= -45

 Intra band minimization:
   WEIMIN = 0.0010     energy-eigenvalue tresh-hold
   EBREAK =  0.26E-08  absolut break condition
   DEPER  =   0.30     relativ break condition  

   TIME   =   0.40     timestep for ELM

  volume/ion in A,a.u.               =      13.83        93.35
  Fermi-wavevector in a.u.,A,eV,Ry     =   1.603542  3.030255 34.985298  2.571347
  Thomas-Fermi vector in A             =   2.700188
 
 Write flags
   LWAVE        =      F    write WAVECAR
   LDOWNSAMPLE  =      F    k-point downsampling of WAVECAR
   LCHARG       =      T    write CHGCAR
   LVTOT        =      F    write LOCPOT, total local potential
   LVHAR        =      F    write LOCPOT, Hartree potential only
   WRT_POTENTIAL= false  ! write potential to hdf5 file
   LELF         =      F    write electronic localiz. function (ELF)
   LORBIT       =     11    0 simple, 1 ext, 2 COOP (PROOUT), +10 PAW based schemes


 Dipole corrections
   LMONO      =      F    monopole corrections only (constant potential shift)
   LDIPOL     =      F    correct potential (dipole corrections)
   IDIPOL     =      0    1-x, 2-y, 3-z, 4-all directions 
   EPSILON    =  1.0000000 bulk dielectric constant
   LVACPOTAV  =      F  vacuum potentials using an averaging scheme for the charge density
   VACPOTFLAT =  0.1000000 required flatness to determine vacuum potential
 Exchange correlation treatment:
   GGA     = PE    functional components
   XC_C    = 1    coefficients multiplying the functional components
   LIBXC   =     F    Libxc                    
   VOSKOWN =     0    Vosko Wilk Nusair interpolation
   LHFCALC =     F    Hartree Fock is set to
   LHFONE  =     F    Hartree Fock one center treatment
   AEXX    =    0.0000 exact exchange contribution

 Parameters of functionals:
   PE:
     No parameter
 
 Van der Waals corrections
   IVDW    =     0    specifies the selected vdW correction

 Linear response parameters
   LEPSILON=     F    determine dielectric tensor
   LRPA    =     F    only Hartree local field effects (RPA)
   LNABLA  =     F    use nabla operator in PAW spheres
   LVEL    =     F    velocity operator in full k-point grid
   CSHIFT  =0.1000    complex shift for real part using Kramers Kronig
   OMEGAMAX=  -1.0    maximum frequency
   DEG_THRESHOLD= 0.2000000E-02 threshold for treating states as degnerate
   RTIME   =   -0.100 relaxation time in fs
  (WPLASMAI=    0.000 imaginary part of plasma frequency in eV, 0.658/RTIME)
   DFIELD  = 0.0000000 0.0000000 0.0000000 field for delta impulse in time
 
  Optional k-point grid parameters
   LKPOINTS_OPT  =     F    use optional k-point grid
   KPOINTS_OPT_MODE=     1    mode for optional k-point grid
 
 Orbital magnetization related:
   ORBITALMAG=     F  switch on orbital magnetization
   LCHIMAG   =     F  perturbation theory with respect to B field
   DQ        =  0.001000  dq finite difference perturbation B field
   LLRAUG    =     F  two centre corrections for induced B field
   LBONE     =     F  B-component reconstruction in AE one-centre
   LVGVCALC  =     T  calculate vGv susceptibility
   LVGVAPPL  =     F  apply vGv susceptibility instead of pGv for G=0

 Random number generation:
   RANDOM_GENERATOR = DEFAULT
   PCG_SEED         = not used


--------------------------------------------------------------------------------------------------------


 conjugate gradient relaxation of ions
 charge density and potential will be updated during run
 spin polarized calculation
 Conjugate gradient for all bands (Freysoldt, et al. PRB 79, 241103 (2009))
 preconditioned conjugated gradient                                        
 perform sub-space diagonalisation
    before iterative eigenvector-optimisation
 modified Broyden-mixing scheme, WC =      100.0
 initial mixing is a Kerker type mixing with AMIX =  0.4000 and BMIX =      1.0000
 Hartree-type preconditioning will be used
 using additional bands           18
 reciprocal scheme for non local part
 use partial core corrections
 no Harris-corrections to forces 
 use gradient corrections 
 use of overlap-Matrix (Vanderbilt PP)
 Methfessel and Paxton  Order N= 1 SIGMA  =   0.20


--------------------------------------------------------------------------------------------------------


  energy-cutoff  :      520.00
  volume of cell :      166.00
      direct lattice vectors                 reciprocal lattice vectors
     3.785385272  0.000000000  0.000000000     0.264173903  0.000000000  0.000000000
     0.000000000  3.785385272  0.000000000     0.000000000  0.264173903  0.000000000
     0.000000000  0.000000000 11.584783235     0.000000000  0.000000000  0.086320130

  length of vectors
     3.785385272  3.785385272 11.584783235     0.264173903  0.264173903  0.086320130


 
 k-points in units of 2pi/SCALE and weight: pymatgen with grid density = 8800 / numb
   0.00000000  0.00000000  0.00000000       0.001
   0.02032107  0.00000000  0.00000000       0.006
   0.04064214  0.00000000  0.00000000       0.006
   0.06096321  0.00000000  0.00000000       0.006
   0.08128428  0.00000000  0.00000000       0.006
   0.10160535  0.00000000  0.00000000       0.006
   0.12192642  0.00000000  0.00000000       0.006
   0.02032107  0.02032107  0.00000000       0.006
   0.04064214  0.02032107  0.00000000       0.012
   0.06096321  0.02032107  0.00000000       0.012
   0.08128428  0.02032107  0.00000000       0.012
   0.10160535  0.02032107  0.00000000       0.012
   0.12192642  0.02032107  0.00000000       0.012
   0.04064214  0.04064214  0.00000000       0.006
   0.06096321  0.04064214  0.00000000       0.012
   0.08128428  0.04064214  0.00000000       0.012
   0.10160535  0.04064214  0.00000000       0.012
   0.12192642  0.04064214  0.00000000       0.012
   0.06096321  0.06096321  0.00000000       0.006
   0.08128428  0.06096321  0.00000000       0.012
   0.10160535  0.06096321  0.00000000       0.012
   0.12192642  0.06096321  0.00000000       0.012
   0.08128428  0.08128428  0.00000000       0.006
   0.10160535  0.08128428  0.00000000       0.012
   0.12192642  0.08128428  0.00000000       0.012
   0.10160535  0.10160535  0.00000000       0.006
   0.12192642  0.10160535  0.00000000       0.012
   0.12192642  0.12192642  0.00000000       0.006
   0.00000000  0.00000000  0.02158003       0.003
   0.02032107  0.00000000  0.02158003       0.012
   0.04064214  0.00000000  0.02158003       0.012
   0.06096321  0.00000000  0.02158003       0.012
   0.08128428  0.00000000  0.02158003       0.012
   0.10160535  0.00000000  0.02158003       0.012
   0.12192642  0.00000000  0.02158003       0.012
   0.02032107  0.02032107  0.02158003       0.012
   0.04064214  0.02032107  0.02158003       0.024
   0.06096321  0.02032107  0.02158003       0.024
   0.08128428  0.02032107  0.02158003       0.024
   0.10160535  0.02032107  0.02158003       0.024
   0.12192642  0.02032107  0.02158003       0.024
   0.04064214  0.04064214  0.02158003       0.012
   0.06096321  0.04064214  0.02158003       0.024
   0.08128428  0.04064214  0.02158003       0.024
   0.10160535  0.04064214  0.02158003       0.024
   0.12192642  0.04064214  0.02158003       0.024
   0.06096321  0.06096321  0.02158003       0.012
   0.08128428  0.06096321  0.02158003       0.024
   0.10160535  0.06096321  0.02158003       0.024
   0.12192642  0.06096321  0.02158003       0.024
   0.08128428  0.08128428  0.02158003       0.012
   0.10160535  0.08128428  0.02158003       0.024
   0.12192642  0.08128428  0.02158003       0.024
   0.10160535  0.10160535  0.02158003       0.012
   0.12192642  0.10160535  0.02158003       0.024
   0.12192642  0.12192642  0.02158003       0.012
   0.00000000  0.00000000  0.04316007       0.001
   0.02032107  0.00000000  0.04316007       0.006
   0.04064214  0.00000000  0.04316007       0.006
   0.06096321  0.00000000  0.04316007       0.006
   0.08128428  0.00000000  0.04316007       0.006
   0.10160535  0.00000000  0.04316007       0.006
   0.12192642  0.00000000  0.04316007       0.006
   0.02032107  0.02032107  0.04316007       0.006
   0.04064214  0.02032107  0.04316007       0.012
   0.06096321  0.02032107  0.04316007       0.012
   0.08128428  0.02032107  0.04316007       0.012
   0.10160535  0.02032107  0.04316007       0.012
   0.12192642  0.02032107  0.04316007       0.012
   0.04064214  0.04064214  0.04316007       0.006
   0.06096321  0.04064214  0.04316007       0.012
   0.08128428  0.04064214  0.04316007       0.012
   0.10160535  0.04064214  0.04316007       0.012
   0.12192642  0.04064214  0.04316007       0.012
   0.06096321  0.06096321  0.04316007       0.006
   0.08128428  0.06096321  0.04316007       0.012
   0.10160535  0.06096321  0.04316007       0.012
   0.12192642  0.06096321  0.04316007       0.012
   0.08128428  0.08128428  0.04316007       0.006
   0.10160535  0.08128428  0.04316007       0.012
   0.12192642  0.08128428  0.04316007       0.012
   0.10160535  0.10160535  0.04316007       0.006
   0.12192642  0.10160535  0.04316007       0.012
   0.12192642  0.12192642  0.04316007       0.006
 
 k-points in reciprocal lattice and weights: pymatgen with grid density = 8800 / numb
   0.00000000  0.00000000  0.00000000       0.001
   0.07692308  0.00000000  0.00000000       0.006
   0.15384615  0.00000000  0.00000000       0.006
   0.23076923  0.00000000  0.00000000       0.006
   0.30769231  0.00000000  0.00000000       0.006
   0.38461538  0.00000000  0.00000000       0.006
   0.46153846  0.00000000  0.00000000       0.006
   0.07692308  0.07692308  0.00000000       0.006
   0.15384615  0.07692308  0.00000000       0.012
   0.23076923  0.07692308  0.00000000       0.012
   0.30769231  0.07692308  0.00000000       0.012
   0.38461538  0.07692308  0.00000000       0.012
   0.46153846  0.07692308  0.00000000       0.012
   0.15384615  0.15384615  0.00000000       0.006
   0.23076923  0.15384615  0.00000000       0.012
   0.30769231  0.15384615  0.00000000       0.012
   0.38461538  0.15384615  0.00000000       0.012
   0.46153846  0.15384615  0.00000000       0.012
   0.23076923  0.23076923  0.00000000       0.006
   0.30769231  0.23076923  0.00000000       0.012
   0.38461538  0.23076923  0.00000000       0.012
   0.46153846  0.23076923  0.00000000       0.012
   0.30769231  0.30769231  0.00000000       0.006
   0.38461538  0.30769231  0.00000000       0.012
   0.46153846  0.30769231  0.00000000       0.012
   0.38461538  0.38461538  0.00000000       0.006
   0.46153846  0.38461538  0.00000000       0.012
   0.46153846  0.46153846  0.00000000       0.006
   0.00000000  0.00000000  0.25000000       0.003
   0.07692308  0.00000000  0.25000000       0.012
   0.15384615  0.00000000  0.25000000       0.012
   0.23076923  0.00000000  0.25000000       0.012
   0.30769231  0.00000000  0.25000000       0.012
   0.38461538  0.00000000  0.25000000       0.012
   0.46153846  0.00000000  0.25000000       0.012
   0.07692308  0.07692308  0.25000000       0.012
   0.15384615  0.07692308  0.25000000       0.024
   0.23076923  0.07692308  0.25000000       0.024
   0.30769231  0.07692308  0.25000000       0.024
   0.38461538  0.07692308  0.25000000       0.024
   0.46153846  0.07692308  0.25000000       0.024
   0.15384615  0.15384615  0.25000000       0.012
   0.23076923  0.15384615  0.25000000       0.024
   0.30769231  0.15384615  0.25000000       0.024
   0.38461538  0.15384615  0.25000000       0.024
   0.46153846  0.15384615  0.25000000       0.024
   0.23076923  0.23076923  0.25000000       0.012
   0.30769231  0.23076923  0.25000000       0.024
   0.38461538  0.23076923  0.25000000       0.024
   0.46153846  0.23076923  0.25000000       0.024
   0.30769231  0.30769231  0.25000000       0.012
   0.38461538  0.30769231  0.25000000       0.024
   0.46153846  0.30769231  0.25000000       0.024
   0.38461538  0.38461538  0.25000000       0.012
   0.46153846  0.38461538  0.25000000       0.024
   0.46153846  0.46153846  0.25000000       0.012
   0.00000000  0.00000000  0.50000000       0.001
   0.07692308  0.00000000  0.50000000       0.006
   0.15384615  0.00000000  0.50000000       0.006
   0.23076923  0.00000000  0.50000000       0.006
   0.30769231  0.00000000  0.50000000       0.006
   0.38461538  0.00000000  0.50000000       0.006
   0.46153846  0.00000000  0.50000000       0.006
   0.07692308  0.07692308  0.50000000       0.006
   0.15384615  0.07692308  0.50000000       0.012
   0.23076923  0.07692308  0.50000000       0.012
   0.30769231  0.07692308  0.50000000       0.012
   0.38461538  0.07692308  0.50000000       0.012
   0.46153846  0.07692308  0.50000000       0.012
   0.15384615  0.15384615  0.50000000       0.006
   0.23076923  0.15384615  0.50000000       0.012
   0.30769231  0.15384615  0.50000000       0.012
   0.38461538  0.15384615  0.50000000       0.012
   0.46153846  0.15384615  0.50000000       0.012
   0.23076923  0.23076923  0.50000000       0.006
   0.30769231  0.23076923  0.50000000       0.012
   0.38461538  0.23076923  0.50000000       0.012
   0.46153846  0.23076923  0.50000000       0.012
   0.30769231  0.30769231  0.50000000       0.006
   0.38461538  0.30769231  0.50000000       0.012
   0.46153846  0.30769231  0.50000000       0.012
   0.38461538  0.38461538  0.50000000       0.006
   0.46153846  0.38461538  0.50000000       0.012
   0.46153846  0.46153846  0.50000000       0.006
 
 position of ions in fractional coordinates (direct lattice) 
   0.00000000  0.50000000  0.16666259
   0.00000000  0.50000000  0.49975417
   0.00000000  0.50000000  0.83358704
   0.50000000  0.50000000  0.01046063
   0.50000000  0.50000000  0.32285530
   0.50000000  0.50000000  0.66667637
   0.50000000  0.00000000  0.16666259
   0.50000000  0.00000000  0.49975417
   0.50000000  0.00000000  0.83358704
   0.00000000  0.00000000  0.99682541
   0.00000000  0.00000000  0.33651662
   0.00000000  0.00000000  0.66665805
 
 position of ions in cartesian coordinates  (Angst):
   0.00000000  1.89269264  1.93074999
   0.00000000  1.89269264  5.78954377
   0.00000000  1.89269264  9.65692518
   1.89269264  1.89269264  0.12118408
   1.89269264  1.89269264  3.74020871
   1.89269264  1.89269264  7.72330124
   1.89269264  0.00000000  1.93074999
   1.89269264  0.00000000  5.78954377
   1.89269264  0.00000000  9.65692518
   0.00000000  0.00000000 11.54800632
   0.00000000  0.00000000  3.89847215
   0.00000000  0.00000000  7.72308902
 


--------------------------------------------------------------------------------------------------------


 k-point     1 :   0.0000 0.0000 0.0000  plane waves:    4415
 k-point     2 :   0.0769 0.0000 0.0000  plane waves:    4432
 k-point     3 :   0.1538 0.0000 0.0000  plane waves:    4440
 k-point     4 :   0.2308 0.0000 0.0000  plane waves:    4450
 k-point     5 :   0.3077 0.0000 0.0000  plane waves:    4464
 k-point     6 :   0.3846 0.0000 0.0000  plane waves:    4492
 k-point     7 :   0.4615 0.0000 0.0000  plane waves:    4496
 k-point     8 :   0.0769 0.0769 0.0000  plane waves:    4448
 k-point     9 :   0.1538 0.0769 0.0000  plane waves:    4445
 k-point    10 :   0.2308 0.0769 0.0000  plane waves:    4454
 k-point    11 :   0.3077 0.0769 0.0000  plane waves:    4469
 k-point    12 :   0.3846 0.0769 0.0000  plane waves:    4464
 k-point    13 :   0.4615 0.0769 0.0000  plane waves:    4476
 k-point    14 :   0.1538 0.1538 0.0000  plane waves:    4474
 k-point    15 :   0.2308 0.1538 0.0000  plane waves:    4460
 k-point    16 :   0.3077 0.1538 0.0000  plane waves:    4472
 k-point    17 :   0.3846 0.1538 0.0000  plane waves:    4476
 k-point    18 :   0.4615 0.1538 0.0000  plane waves:    4482
 k-point    19 :   0.2308 0.2308 0.0000  plane waves:    4478
 k-point    20 :   0.3077 0.2308 0.0000  plane waves:    4483
 k-point    21 :   0.3846 0.2308 0.0000  plane waves:    4477
 k-point    22 :   0.4615 0.2308 0.0000  plane waves:    4491
 k-point    23 :   0.3077 0.3077 0.0000  plane waves:    4478
 k-point    24 :   0.3846 0.3077 0.0000  plane waves:    4482
 k-point    25 :   0.4615 0.3077 0.0000  plane waves:    4477
 k-point    26 :   0.3846 0.3846 0.0000  plane waves:    4474
 k-point    27 :   0.4615 0.3846 0.0000  plane waves:    4467
 k-point    28 :   0.4615 0.4615 0.0000  plane waves:    4486
 k-point    29 :   0.0000 0.0000 0.2500  plane waves:    4411
 k-point    30 :   0.0769 0.0000 0.2500  plane waves:    4436
 k-point    31 :   0.1538 0.0000 0.2500  plane waves:    4443
 k-point    32 :   0.2308 0.0000 0.2500  plane waves:    4441
 k-point    33 :   0.3077 0.0000 0.2500  plane waves:    4467
 k-point    34 :   0.3846 0.0000 0.2500  plane waves:    4468
 k-point    35 :   0.4615 0.0000 0.2500  plane waves:    4474
 k-point    36 :   0.0769 0.0769 0.2500  plane waves:    4431
 k-point    37 :   0.1538 0.0769 0.2500  plane waves:    4444
 k-point    38 :   0.2308 0.0769 0.2500  plane waves:    4455
 k-point    39 :   0.3077 0.0769 0.2500  plane waves:    4468
 k-point    40 :   0.3846 0.0769 0.2500  plane waves:    4478
 k-point    41 :   0.4615 0.0769 0.2500  plane waves:    4478
 k-point    42 :   0.1538 0.1538 0.2500  plane waves:    4455
 k-point    43 :   0.2308 0.1538 0.2500  plane waves:    4470
 k-point    44 :   0.3077 0.1538 0.2500  plane waves:    4468
 k-point    45 :   0.3846 0.1538 0.2500  plane waves:    4480
 k-point    46 :   0.4615 0.1538 0.2500  plane waves:    4479
 k-point    47 :   0.2308 0.2308 0.2500  plane waves:    4481
 k-point    48 :   0.3077 0.2308 0.2500  plane waves:    4469
 k-point    49 :   0.3846 0.2308 0.2500  plane waves:    4489
 k-point    50 :   0.4615 0.2308 0.2500  plane waves:    4486
 k-point    51 :   0.3077 0.3077 0.2500  plane waves:    4474
 k-point    52 :   0.3846 0.3077 0.2500  plane waves:    4485
 k-point    53 :   0.4615 0.3077 0.2500  plane waves:    4493
 k-point    54 :   0.3846 0.3846 0.2500  plane waves:    4483
 k-point    55 :   0.4615 0.3846 0.2500  plane waves:    4477
 k-point    56 :   0.4615 0.4615 0.2500  plane waves:    4470
 k-point    57 :   0.0000 0.0000 0.5000  plane waves:    4396
 k-point    58 :   0.0769 0.0000 0.5000  plane waves:    4420
 k-point    59 :   0.1538 0.0000 0.5000  plane waves:    4428
 k-point    60 :   0.2308 0.0000 0.5000  plane waves:    4458
 k-point    61 :   0.3077 0.0000 0.5000  plane waves:    4474
 k-point    62 :   0.3846 0.0000 0.5000  plane waves:    4472
 k-point    63 :   0.4615 0.0000 0.5000  plane waves:    4470
 k-point    64 :   0.0769 0.0769 0.5000  plane waves:    4432
 k-point    65 :   0.1538 0.0769 0.5000  plane waves:    4438
 k-point    66 :   0.2308 0.0769 0.5000  plane waves:    4452
 k-point    67 :   0.3077 0.0769 0.5000  plane waves:    4472
 k-point    68 :   0.3846 0.0769 0.5000  plane waves:    4482
 k-point    69 :   0.4615 0.0769 0.5000  plane waves:    4480
 k-point    70 :   0.1538 0.1538 0.5000  plane waves:    4450
 k-point    71 :   0.2308 0.1538 0.5000  plane waves:    4462
 k-point    72 :   0.3077 0.1538 0.5000  plane waves:    4476
 k-point    73 :   0.3846 0.1538 0.5000  plane waves:    4486
 k-point    74 :   0.4615 0.1538 0.5000  plane waves:    4476
 k-point    75 :   0.2308 0.2308 0.5000  plane waves:    4452
 k-point    76 :   0.3077 0.2308 0.5000  plane waves:    4476
 k-point    77 :   0.3846 0.2308 0.5000  plane waves:    4478
 k-point    78 :   0.4615 0.2308 0.5000  plane waves:    4488
 k-point    79 :   0.3077 0.3077 0.5000  plane waves:    4480
 k-point    80 :   0.3846 0.3077 0.5000  plane waves:    4470
 k-point    81 :   0.4615 0.3077 0.5000  plane waves:    4478
 k-point    82 :   0.3846 0.3846 0.5000  plane waves:    4474
 k-point    83 :   0.4615 0.3846 0.5000  plane waves:    4470
 k-point    84 :   0.4615 0.4615 0.5000  plane waves:    4496

 maximum and minimum number of plane-waves per node :      4496     4396

 maximum number of plane-waves:      4496
 maximum index in each direction: 
   IXMAX=    7   IYMAX=    7   IZMAX=   21
   IXMIN=   -7   IYMIN=   -7   IZMIN=  -22


 serial   3D FFT for wavefunctions
 parallel 3D FFT for charge:
    minimum data exchange during FFTs selected (reduces bandwidth)


 total amount of memory used by VASP MPI-rank0   263218. kBytes
=======================================================================

   base      :      30000. kBytes
   nonl-proj :     110020. kBytes
   fftplans  :        955. kBytes
   grid      :       7297. kBytes
   one-center:        373. kBytes
   wavefun   :     114573. kBytes
 
     INWAV:  cpu time      0.0001: real time      0.0001
 Broyden mixing: mesh for mixing (old mesh)
   NGX = 15   NGY = 15   NGZ = 43
  (NGX  = 56   NGY  = 56   NGZ  =180)
  gives a total of   9675 points

 initial charge density was supplied:
 charge density of overlapping atoms calculated
 number of electron     156.0000000 magnetization       2.9460000
 charge density for first step will be calculated from the start-wavefunctions


--------------------------------------------------------------------------------------------------------


 Maximum index for augmentation-charges         1054 (set IRDMAX)


--------------------------------------------------------------------------------------------------------


 First call to EWALD:  gamma=   0.323
 Maximum number of real-space cells 4x 4x 2
 Maximum number of reciprocal cells 2x 2x 5

    FEWALD:  cpu time      0.0029: real time      0.0029


--------------------------------------- Ionic step        1  -------------------------------------------




--------------------------------------- Iteration      1(   1)  ---------------------------------------


    POTLOK:  cpu time      0.0385: real time      0.0392
    SETDIJ:  cpu time      0.0128: real time      0.0129
    TRIAL :  cpu time      4.9268: real time      4.9725
    CORREC:  cpu time      0.0025: real time      0.0025
    --------------------------------------------
      LOOP:  cpu time      5.0701: real time      5.1194

 eigenvalue-minimisations  : 32256
 total energy-change (2. order) : 0.1732995E+04  (-0.9390343E+04)
 number of electron     156.0000000 magnetization       2.9460000
 augmentation part      156.0000000 magnetization       2.9460000

 Free energy of the ion-electron system (eV)
  ---------------------------------------------------
  alpha Z        PSCENC =      1025.24174436
  Ewald energy   TEWEN  =    -17704.75676456
  -Hartree energ DENC   =     -6198.50186981
  -exchange      EXHF   =         0.00000000
  -V(xc)+E(xc)   XCENC  =       654.77122185
  PAW double counting   =     20093.70566347   -20817.60575591
  entropy T*S    EENTRO =        -0.00191146
  eigenvalues    EBANDS =       376.03997576
  atomic energy  EATOM  =     24304.10294433
  ---------------------------------------------------
  free energy    TOTEN  =      1732.99524803 eV

  energy without entropy =     1732.99715949  energy(sigma->0) =     1732.99588518


--------------------------------------------------------------------------------------------------------




--------------------------------------- Iteration      1(   2)  ---------------------------------------


    TRIAL :  cpu time      4.5984: real time      4.6329
    CORREC:  cpu time      0.0025: real time      0.0025
    --------------------------------------------
      LOOP:  cpu time      4.6089: real time      4.6566

 eigenvalue-minimisations  : 32320
 total energy-change (2. order) :-0.1720861E+04  (-0.1691886E+04)
 number of electron     156.0000000 magnetization       2.9460000
 augmentation part      156.0000000 magnetization       2.9460000

 Free energy of the ion-electron system (eV)
  ---------------------------------------------------
  alpha Z        PSCENC =      1025.24174436
  Ewald energy   TEWEN  =    -17704.75676456
  -Hartree energ DENC   =     -6198.50186981
  -exchange      EXHF   =         0.00000000
  -V(xc)+E(xc)   XCENC  =       654.77122185
  PAW double counting   =     20093.70566347   -20817.60575591
  entropy T*S    EENTRO =         0.00117792
  eigenvalues    EBANDS =     -1344.82397337
  atomic energy  EATOM  =     24304.10294433
  ---------------------------------------------------
  free energy    TOTEN  =        12.13438827 eV

  energy without entropy =       12.13321035  energy(sigma->0) =       12.13399563


--------------------------------------------------------------------------------------------------------




--------------------------------------- Iteration      1(   3)  ---------------------------------------


    TRIAL :  cpu time      6.2105: real time      6.2526
    CORREC:  cpu time      0.0024: real time      0.0024
    --------------------------------------------
      LOOP:  cpu time      6.2227: real time      6.2771

 eigenvalue-minimisations  : 42336
 total energy-change (2. order) :-0.1141625E+03  (-0.1128554E+03)
 number of electron     156.0000000 magnetization       2.9460000
 augmentation part      156.0000000 magnetization       2.9460000

 Free energy of the ion-electron system (eV)
  ---------------------------------------------------
  alpha Z        PSCENC =      1025.24174436
  Ewald energy   TEWEN  =    -17704.75676456
  -Hartree energ DENC   =     -6198.50186981
  -exchange      EXHF   =         0.00000000
  -V(xc)+E(xc)   XCENC  =       654.77122185
  PAW double counting   =     20093.70566347   -20817.60575591
  entropy T*S    EENTRO =         0.01744979
  eigenvalues    EBANDS =     -1459.00275512
  atomic energy  EATOM  =     24304.10294433
  ---------------------------------------------------
  free energy    TOTEN  =      -102.02812160 eV

  energy without entropy =     -102.04557139  energy(sigma->0) =     -102.03393820


--------------------------------------------------------------------------------------------------------




--------------------------------------- Iteration      1(   4)  ---------------------------------------


    TRIAL :  cpu time      4.6150: real time      4.6497
    CORREC:  cpu time      0.0024: real time      0.0025
    --------------------------------------------
      LOOP:  cpu time      4.6278: real time      4.6740

 eigenvalue-minimisations  : 32448
 total energy-change (2. order) :-0.2514966E+01  (-0.2513432E+01)
 number of electron     156.0000000 magnetization       2.9460000
 augmentation part      156.0000000 magnetization       2.9460000

 Free energy of the ion-electron system (eV)
  ---------------------------------------------------
  alpha Z        PSCENC =      1025.24174436
  Ewald energy   TEWEN  =    -17704.75676456
  -Hartree energ DENC   =     -6198.50186981
  -exchange      EXHF   =         0.00000000
  -V(xc)+E(xc)   XCENC  =       654.77122185
  PAW double counting   =     20093.70566347   -20817.60575591
  entropy T*S    EENTRO =         0.01716383
  eigenvalues    EBANDS =     -1461.51743489
  atomic energy  EATOM  =     24304.10294433
  ---------------------------------------------------
  free energy    TOTEN  =      -104.54308734 eV

  energy without entropy =     -104.56025116  energy(sigma->0) =     -104.54880861


--------------------------------------------------------------------------------------------------------




--------------------------------------- Iteration      1(   5)  ---------------------------------------


    TRIAL :  cpu time      5.9987: real time      6.0394
    CORREC:  cpu time      0.0025: real time      0.0025
    CHARGE:  cpu time      0.1631: real time      0.1646
    --------------------------------------------
      LOOP:  cpu time      6.1744: real time      6.2288

 eigenvalue-minimisations  : 41280
 total energy-change (2. order) :-0.5724463E-01  (-0.5724367E-01)
 number of electron     155.9999970 magnetization       2.8441533
 augmentation part       79.2713338 magnetization       1.9668890

 Free energy of the ion-electron system (eV)
  ---------------------------------------------------
  alpha Z        PSCENC =      1025.24174436
  Ewald energy   TEWEN  =    -17704.75676456
  -Hartree energ DENC   =     -6198.50186981
  -exchange      EXHF   =         0.00000000
  -V(xc)+E(xc)   XCENC  =       654.77122185
  PAW double counting   =     20093.70566347   -20817.60575591
  entropy T*S    EENTRO =         0.01715851
  eigenvalues    EBANDS =     -1461.57467421
  atomic energy  EATOM  =     24304.10294433
  ---------------------------------------------------
  free energy    TOTEN  =      -104.60033197 eV

  energy without entropy =     -104.61749048  energy(sigma->0) =     -104.60605147


--------------------------------------------------------------------------------------------------------




--------------------------------------- Iteration      1(   6)  ---------------------------------------


    POTLOK:  cpu time      0.0233: real time      0.0235
    SETDIJ:  cpu time      0.0082: real time      0.0083
    TRIAL :  cpu time      2.0568: real time      2.0781
    CORREC:  cpu time      0.8096: real time      0.8170
    CHARGE:  cpu time      0.1579: real time      0.1588
    --------------------------------------------
      LOOP:  cpu time      3.0687: real time      3.1082

 eigenvalue-minimisations  :     0
 total energy-change (2. order) : 0.5672571E+02  (-0.2223915E+02)
 number of electron     155.9999969 magnetization       2.4864281
 augmentation part       81.3693988 magnetization       1.9070291

 Free energy of the ion-electron system (eV)
  ---------------------------------------------------
  alpha Z        PSCENC =      1025.24174436
  Ewald energy   TEWEN  =    -17704.75676456
  -Hartree energ DENC   =     -5042.49799819
  -exchange      EXHF   =         0.00000000
  -V(xc)+E(xc)   XCENC  =       607.43998737
  PAW double counting   =     20520.01140456   -21180.10495850
  entropy T*S    EENTRO =         0.00321841
  eigenvalues    EBANDS =     -2577.32814126
  atomic energy  EATOM  =     24304.10294433
  ---------------------------------------------------
  free energy    TOTEN  =       -47.87462338 eV

  energy without entropy =      -47.87784180  energy(sigma->0) =      -47.87569619


--------------------------------------------------------------------------------------------------------




--------------------------------------- Iteration      1(   7)  ---------------------------------------


    POTLOK:  cpu time      0.0236: real time      0.0237
    SETDIJ:  cpu time      0.0079: real time      0.0080
    TRIAL :  cpu time      2.1575: real time      2.1786
    CORREC:  cpu time      0.8031: real time      0.8118
    CHARGE:  cpu time      0.1577: real time      0.1586
    --------------------------------------------
      LOOP:  cpu time      3.1604: real time      3.2037

 eigenvalue-minimisations  :     0
 total energy-change (2. order) :-0.2566884E+02  (-0.9880294E+01)
 number of electron     155.9999968 magnetization       2.7368933
 augmentation part       82.8941079 magnetization       2.0219516

 Free energy of the ion-electron system (eV)
  ---------------------------------------------------
  alpha Z        PSCENC =      1025.24174436
  Ewald energy   TEWEN  =    -17704.75676456
  -Hartree energ DENC   =     -5316.13551843
  -exchange      EXHF   =         0.00000000
  -V(xc)+E(xc)   XCENC  =       619.36943614
  PAW double counting   =     20871.65177678   -21582.85380923
  entropy T*S    EENTRO =         0.00886060
  eigenvalues    EBANDS =     -2290.16648941
  atomic energy  EATOM  =     24304.10294433
  ---------------------------------------------------
  free energy    TOTEN  =       -73.54346162 eV

  energy without entropy =      -73.55232222  energy(sigma->0) =      -73.54641516


--------------------------------------------------------------------------------------------------------




--------------------------------------- Iteration      1(   8)  ---------------------------------------


    POTLOK:  cpu time      0.0229: real time      0.0231
    SETDIJ:  cpu time      0.0076: real time      0.0077
    TRIAL :  cpu time      2.1934: real time      2.2145
    CORREC:  cpu time      0.8053: real time      0.8138
    CHARGE:  cpu time      0.1582: real time      0.1593
    --------------------------------------------
      LOOP:  cpu time      3.1988: real time      3.2420

 eigenvalue-minimisations  :     0
 total energy-change (2. order) :-0.1183518E+02  (-0.3947024E+01)
 number of electron     155.9999967 magnetization       2.8259007
 augmentation part       84.3950849 magnetization       2.0878146

 Free energy of the ion-electron system (eV)
  ---------------------------------------------------
  alpha Z        PSCENC =      1025.24174436
  Ewald energy   TEWEN  =    -17704.75676456
  -Hartree energ DENC   =     -5537.24506990
  -exchange      EXHF   =         0.00000000
  -V(xc)+E(xc)   XCENC  =       628.33776931
  PAW double counting   =     21222.03304692   -21970.41402004
  entropy T*S    EENTRO =         0.01242141
  eigenvalues    EBANDS =     -2052.68715203
  atomic energy  EATOM  =     24304.10294433
  ---------------------------------------------------
  free energy    TOTEN  =       -85.37864102 eV

  energy without entropy =      -85.39106243  energy(sigma->0) =      -85.38278149


--------------------------------------------------------------------------------------------------------




--------------------------------------- Iteration      1(   9)  ---------------------------------------


    POTLOK:  cpu time      0.0240: real time      0.0242
    SETDIJ:  cpu time      0.0070: real time      0.0070
    TRIAL :  cpu time      2.0306: real time      2.0512
    CORREC:  cpu time      0.8057: real time      0.8146
    CHARGE:  cpu time      0.1598: real time      0.1607
    --------------------------------------------
      LOOP:  cpu time      3.0382: real time      3.0804

 eigenvalue-minimisations  :     0
 total energy-change (2. order) :-0.3849498E+01  (-0.6214851E+00)
 number of electron     155.9999967 magnetization       2.7235760
 augmentation part       84.7111947 magnetization       2.0494360

 Free energy of the ion-electron system (eV)
  ---------------------------------------------------
  alpha Z        PSCENC =      1025.24174436
  Ewald energy   TEWEN  =    -17704.75676456
  -Hartree energ DENC   =     -5761.20788923
  -exchange      EXHF   =         0.00000000
  -V(xc)+E(xc)   XCENC  =       637.44476858
  PAW double counting   =     21656.27807183   -22435.68256344
  entropy T*S    EENTRO =         0.01230587
  eigenvalues    EBANDS =     -1810.66087210
  atomic energy  EATOM  =     24304.10294433
  ---------------------------------------------------
  free energy    TOTEN  =       -89.22813883 eV

  energy without entropy =      -89.24044470  energy(sigma->0) =      -89.23224079


--------------------------------------------------------------------------------------------------------




--------------------------------------- Iteration      1(  10)  ---------------------------------------


    POTLOK:  cpu time      0.0230: real time      0.0232
    SETDIJ:  cpu time      0.0079: real time      0.0080
    TRIAL :  cpu time      2.0711: real time      2.0921
    CORREC:  cpu time      0.8064: real time      0.8150
    CHARGE:  cpu time      0.1577: real time      0.1586
    --------------------------------------------
      LOOP:  cpu time      3.0770: real time      3.1191

 eigenvalue-minimisations  :     0
 total energy-change (2. order) :-0.8510910E+00  (-0.4739303E+00)
 number of electron     155.9999967 magnetization       2.6046612
 augmentation part       84.8413441 magnetization       2.0011026

 Free energy of the ion-electron system (eV)
  ---------------------------------------------------
  alpha Z        PSCENC =      1025.24174436
  Ewald energy   TEWEN  =    -17704.75676456
  -Hartree energ DENC   =     -5804.15795389
  -exchange      EXHF   =         0.00000000
  -V(xc)+E(xc)   XCENC  =       639.36043523
  PAW double counting   =     21759.20679190   -22543.57492011
  entropy T*S    EENTRO =         0.01150916
  eigenvalues    EBANDS =     -1765.51381298
  atomic energy  EATOM  =     24304.10294433
  ---------------------------------------------------
  free energy    TOTEN  =       -90.07922985 eV

  energy without entropy =      -90.09073901  energy(sigma->0) =      -90.08306624


--------------------------------------------------------------------------------------------------------




--------------------------------------- Iteration      1(  11)  ---------------------------------------


    POTLOK:  cpu time      0.0237: real time      0.0239
    SETDIJ:  cpu time      0.0079: real time      0.0080
    TRIAL :  cpu time      2.0613: real time      2.0828
    CORREC:  cpu time      0.9173: real time      0.9268
    CHARGE:  cpu time      0.1576: real time      0.1585
    --------------------------------------------
      LOOP:  cpu time      3.1777: real time      3.2225

 eigenvalue-minimisations  :     0
 total energy-change (2. order) :-0.4975823E+00  (-0.7204143E+00)
 number of electron     155.9999967 magnetization       2.5861886
 augmentation part       84.9920895 magnetization       2.0133721

 Free energy of the ion-electron system (eV)
  ---------------------------------------------------
  alpha Z        PSCENC =      1025.24174436
  Ewald energy   TEWEN  =    -17704.75676456
  -Hartree energ DENC   =     -5817.75858140
  -exchange      EXHF   =         0.00000000
  -V(xc)+E(xc)   XCENC  =       640.13660331
  PAW double counting   =     21802.18366720   -22585.63544388
  entropy T*S    EENTRO =         0.01197748
  eigenvalues    EBANDS =     -1754.10249067
  atomic energy  EATOM  =     24304.10294433
  ---------------------------------------------------
  free energy    TOTEN  =       -90.57681215 eV

  energy without entropy =      -90.58878963  energy(sigma->0) =      -90.58080465


--------------------------------------------------------------------------------------------------------




--------------------------------------- Iteration      1(  12)  ---------------------------------------


    POTLOK:  cpu time      0.0232: real time      0.0234
    SETDIJ:  cpu time      0.0077: real time      0.0077
    TRIAL :  cpu time      2.0448: real time      2.0663
    CORREC:  cpu time      0.8006: real time      0.8097
    CHARGE:  cpu time      0.1577: real time      0.1587
    --------------------------------------------
      LOOP:  cpu time      3.0463: real time      3.0885

 eigenvalue-minimisations  :     0
 total energy-change (2. order) :-0.7430377E+00  (-0.2006481E+00)
 number of electron     155.9999967 magnetization       2.6482574
 augmentation part       85.0154585 magnetization       2.0511078

 Free energy of the ion-electron system (eV)
  ---------------------------------------------------
  alpha Z        PSCENC =      1025.24174436
  Ewald energy   TEWEN  =    -17704.75676456
  -Hartree energ DENC   =     -5829.99474119
  -exchange      EXHF   =         0.00000000
  -V(xc)+E(xc)   XCENC  =       641.04040827
  PAW double counting   =     21857.74478095   -22633.16481542
  entropy T*S    EENTRO =         0.01310843
  eigenvalues    EBANDS =     -1751.54538409
  atomic energy  EATOM  =     24304.10294433
  ---------------------------------------------------
  free energy    TOTEN  =       -91.31984989 eV

  energy without entropy =      -91.33295832  energy(sigma->0) =      -91.32421936


--------------------------------------------------------------------------------------------------------




--------------------------------------- Iteration      1(  13)  ---------------------------------------


    POTLOK:  cpu time      0.0229: real time      0.0231
    SETDIJ:  cpu time      0.0083: real time      0.0084
    TRIAL :  cpu time      2.0333: real time      2.0556
    CORREC:  cpu time      0.8054: real time      0.8142
    CHARGE:  cpu time      0.1575: real time      0.1584
    --------------------------------------------
      LOOP:  cpu time      3.0384: real time      3.0826

 eigenvalue-minimisations  :     0
 total energy-change (2. order) :-0.3068015E+00  (-0.3295333E+00)
 number of electron     155.9999967 magnetization       2.7915084
 augmentation part       84.9822080 magnetization       2.1221682

 Free energy of the ion-electron system (eV)
  ---------------------------------------------------
  alpha Z        PSCENC =      1025.24174436
  Ewald energy   TEWEN  =    -17704.75676456
  -Hartree energ DENC   =     -5832.31805016
  -exchange      EXHF   =         0.00000000
  -V(xc)+E(xc)   XCENC  =       641.21068937
  PAW double counting   =     21870.26348384   -22642.96715416
  entropy T*S    EENTRO =         0.01347540
  eigenvalues    EBANDS =     -1752.41665281
  atomic energy  EATOM  =     24304.10294433
  ---------------------------------------------------
  free energy    TOTEN  =       -91.62665135 eV

  energy without entropy =      -91.64012676  energy(sigma->0) =      -91.63114315


--------------------------------------------------------------------------------------------------------




--------------------------------------- Iteration      1(  14)  ---------------------------------------


    POTLOK:  cpu time      0.0231: real time      0.0234
    SETDIJ:  cpu time      0.0072: real time      0.0073
    TRIAL :  cpu time      2.0707: real time      2.0922
    CORREC:  cpu time      0.9042: real time      0.9130
    CHARGE:  cpu time      0.1586: real time      0.1598
    --------------------------------------------
      LOOP:  cpu time      3.1745: real time      3.2186

 eigenvalue-minimisations  :     0
 total energy-change (2. order) :-0.2989544E+00  (-0.2902437E+00)
 number of electron     155.9999967 magnetization       2.6980543
 augmentation part       84.8279729 magnetization       2.0779207

 Free energy of the ion-electron system (eV)
  ---------------------------------------------------
  alpha Z        PSCENC =      1025.24174436
  Ewald energy   TEWEN  =    -17704.75676456
  -Hartree energ DENC   =     -5831.23192900
  -exchange      EXHF   =         0.00000000
  -V(xc)+E(xc)   XCENC  =       641.06125506
  PAW double counting   =     21857.24019149   -22628.83433394
  entropy T*S    EENTRO =         0.01180382
  eigenvalues    EBANDS =     -1754.76218893
  atomic energy  EATOM  =     24304.10294433
  ---------------------------------------------------
  free energy    TOTEN  =       -91.92560580 eV

  energy without entropy =      -91.93740961  energy(sigma->0) =      -91.92954040


--------------------------------------------------------------------------------------------------------




--------------------------------------- Iteration      1(  15)  ---------------------------------------


    POTLOK:  cpu time      0.0230: real time      0.0233
    SETDIJ:  cpu time      0.0079: real time      0.0079
    TRIAL :  cpu time      2.0333: real time      2.0545
    CORREC:  cpu time      0.8070: real time      0.8156
    CHARGE:  cpu time      0.1576: real time      0.1587
    --------------------------------------------
      LOOP:  cpu time      3.0394: real time      3.0825

 eigenvalue-minimisations  :     0
 total energy-change (2. order) :-0.2892298E+00  (-0.2531021E+00)
 number of electron     155.9999966 magnetization       2.8277930
 augmentation part       84.7208984 magnetization       2.1521421

 Free energy of the ion-electron system (eV)
  ---------------------------------------------------
  alpha Z        PSCENC =      1025.24174436
  Ewald energy   TEWEN  =    -17704.75676456
  -Hartree energ DENC   =     -5815.06592285
  -exchange      EXHF   =         0.00000000
  -V(xc)+E(xc)   XCENC  =       640.38544753
  PAW double counting   =     21798.28476097   -22564.17408827
  entropy T*S    EENTRO =         0.01063466
  eigenvalues    EBANDS =     -1776.24476089
  atomic energy  EATOM  =     24304.10294433
  ---------------------------------------------------
  free energy    TOTEN  =       -92.21483557 eV

  energy without entropy =      -92.22547024  energy(sigma->0) =      -92.21838046


--------------------------------------------------------------------------------------------------------




--------------------------------------- Iteration      1(  16)  ---------------------------------------


    POTLOK:  cpu time      0.0231: real time      0.0233
    SETDIJ:  cpu time      0.0076: real time      0.0077
    TRIAL :  cpu time      2.0487: real time      2.0690
    CORREC:  cpu time      0.8040: real time      0.8123
    CHARGE:  cpu time      0.1570: real time      0.1579
    --------------------------------------------
      LOOP:  cpu time      3.0516: real time      3.0937

 eigenvalue-minimisations  :     0
 total energy-change (2. order) :-0.2479167E+00  (-0.1614819E+00)
 number of electron     155.9999966 magnetization       2.7696577
 augmentation part       84.7105475 magnetization       2.1344389

 Free energy of the ion-electron system (eV)
  ---------------------------------------------------
  alpha Z        PSCENC =      1025.24174436
  Ewald energy   TEWEN  =    -17704.75676456
  -Hartree energ DENC   =     -5808.02586890
  -exchange      EXHF   =         0.00000000
  -V(xc)+E(xc)   XCENC  =       640.01308863
  PAW double counting   =     21758.54580661   -22519.42093909
  entropy T*S    EENTRO =         0.00978555
  eigenvalues    EBANDS =     -1788.17339833
  atomic energy  EATOM  =     24304.10294433
  ---------------------------------------------------
  free energy    TOTEN  =       -92.46275229 eV

  energy without entropy =      -92.47253784  energy(sigma->0) =      -92.46601414


--------------------------------------------------------------------------------------------------------




--------------------------------------- Iteration      1(  17)  ---------------------------------------


    POTLOK:  cpu time      0.0228: real time      0.0230
    SETDIJ:  cpu time      0.0082: real time      0.0082
    TRIAL :  cpu time      2.1518: real time      2.1735
    CORREC:  cpu time      0.8033: real time      0.8122
    CHARGE:  cpu time      0.1571: real time      0.1581
    --------------------------------------------
      LOOP:  cpu time      3.1544: real time      3.1979

 eigenvalue-minimisations  :     0
 total energy-change (2. order) :-0.1565095E+00  (-0.1614436E+00)
 number of electron     155.9999966 magnetization       2.8579036
[...]
     29       3.5896      1.00000
     30       3.6151      1.00000
     31       3.7646      1.00000
     32       3.7961      1.00000
     33       4.0532      1.00000
     34       4.0679      1.00000
     35       4.3643      1.00000
     36       4.3977      1.00000
     37       4.5647      1.00000
     38       4.6103      1.00000
     39       4.6208      1.00000
     40       5.1526      1.00000
     41       5.5001      1.00000
     42       5.7470      1.00000
     43       5.9759      1.00000
     44       5.9796      1.00000
     45       6.0083      1.00000
     46       6.0263      1.00000
     47       6.1238      1.00000
     48       6.1547      1.00000
     49       6.2266      1.00000
     50       6.2359      1.00000
     51       6.3841      1.00000
     52       6.3874      1.00000
     53       6.4407      1.00000
     54       6.5084      1.00000
     55       6.5368      1.00000
     56       6.5824      1.00000
     57       6.6702      1.00000
     58       6.7957      1.00000
     59       6.8978      1.00000
     60       7.1446      1.00000
     61       7.2290      1.00000
     62       7.5814      1.00000
     63       7.7343      1.00000
     64       7.7812      1.00000
     65       7.8612      1.00000
     66       7.9105      1.00000
     67       7.9300      1.00000
     68       8.0020      1.00000
     69       8.2680      1.00000
     70       8.2852      1.00000
     71       8.3124      1.00000
     72       8.3244      1.00000
     73       8.4230      1.00007
     74       8.4584      1.00018
     75       8.6420      1.00940
     76       8.7190      1.02482
     77       8.8651      0.99747
     78       8.9219      0.89510
     79       9.0685      0.34928
     80       9.1860      0.01799
     81       9.1938      0.00645
     82       9.2614     -0.03430
     83       9.4625     -0.00477
     84       9.7705     -0.00000
     85       9.8148     -0.00000
     86       9.8661     -0.00000
     87       9.9986     -0.00000
     88      10.0216     -0.00000
     89      10.3360     -0.00000
     90      10.3620     -0.00000
     91      10.4615     -0.00000
     92      10.5732     -0.00000
     93      10.6054     -0.00000
     94      11.0184     -0.00000
     95      11.1044     -0.00000
     96      11.1878     -0.00000


--------------------------------------------------------------------------------------------------------


 soft charge-density along one line, spin component           1
         0         1         2         3         4         5         6         7         8         9
 total charge-density along one line
 
 soft charge-density along one line, spin component           2
         0         1         2         3         4         5         6         7         8         9
 total charge-density along one line
 
 pseudopotential strength for first ion, spin component:           1
-43.336  -0.000   0.000   6.917   0.000  -0.000  -0.000   0.000
 -0.000 -43.332   0.000   0.000   6.915  -0.000  -0.000   0.000
  0.000   0.000 -43.265  -0.000  -0.000   6.887   0.000  -0.000
  6.917   0.000  -0.000   5.846   0.000  -0.000   0.000  -0.000
  0.000   6.915  -0.000   0.000   5.847  -0.000   0.000  -0.000
 -0.000  -0.000   6.887  -0.000  -0.000   5.854  -0.000   0.000
 -0.000  -0.000   0.000   0.000   0.000  -0.000  -0.759   0.000
  0.000   0.000  -0.000  -0.000  -0.000   0.000   0.000  -0.745
 -0.000   0.000   0.000   0.000  -0.000  -0.000   0.000  -0.000
 -0.000  -0.000   0.000   0.000  -0.000  -0.000  -0.000   0.000
 -0.000  -0.000  -0.000   0.000  -0.000   0.000  -0.000   0.000
 -0.000  -0.000   0.000   0.000   0.000  -0.000  -1.295   0.000
  0.000   0.000  -0.000  -0.000  -0.000   0.000   0.000  -1.280
 -0.000   0.000   0.000   0.000  -0.000  -0.000   0.000  -0.000
 -0.000  -0.000   0.000   0.000   0.000  -0.000  -0.000   0.000
 -0.000  -0.000  -0.000   0.000  -0.000   0.000  -0.000   0.000
 -0.000  -0.000   0.000  -0.000  -0.000   0.000  -0.000   0.000
 -0.000  -0.000   0.000  -0.000  -0.000   0.000  -0.000   0.000
 pseudopotential strength for first ion, spin component:           2
-45.709  -0.000  -0.000   7.914   0.000   0.000   0.000   0.000
 -0.000 -45.669   0.000   0.000   7.897  -0.000  -0.000   0.000
 -0.000   0.000 -45.503   0.000  -0.000   7.831   0.000  -0.000
  7.914   0.000   0.000   5.565   0.000   0.000  -0.000  -0.000
  0.000   7.897  -0.000   0.000   5.568  -0.000   0.000  -0.000
  0.000  -0.000   7.831   0.000  -0.000   5.582  -0.000   0.000
  0.000  -0.000   0.000  -0.000   0.000  -0.000  -2.605   0.000
  0.000   0.000  -0.000  -0.000  -0.000   0.000   0.000  -2.776
 -0.000   0.000  -0.000   0.000  -0.000  -0.000   0.000  -0.000
 -0.000   0.000   0.000   0.000  -0.000  -0.000  -0.000  -0.000
 -0.000  -0.000  -0.000   0.000   0.000   0.000   0.000   0.000
 -0.000  -0.000   0.000  -0.000   0.000  -0.000  -3.110   0.000
  0.000   0.000  -0.000  -0.000  -0.000   0.000   0.000  -3.279
 -0.000   0.000  -0.000   0.000  -0.000  -0.000   0.000  -0.000
 -0.000  -0.000   0.000   0.000  -0.000  -0.000  -0.000  -0.000
 -0.000  -0.000  -0.000   0.000   0.000  -0.000   0.000   0.000
 -0.000  -0.000  -0.000  -0.000  -0.000  -0.000   0.000   0.000
 -0.000  -0.000  -0.000  -0.000  -0.000   0.000   0.000   0.000
 total augmentation occupancy for first ion, spin component:           1
  1.992   0.000   0.000  -0.027   0.000   0.000   0.000   0.000  -0.000   0.000   0.000   0.000  -0.000  -0.000   0.000   0.000
  0.000   1.992   0.000   0.000  -0.027   0.000  -0.000   0.000   0.000   0.000  -0.000   0.000   0.000  -0.000   0.000   0.000
  0.000   0.000   1.992   0.000   0.000  -0.026   0.000   0.000   0.000  -0.000   0.000   0.000   0.000  -0.000   0.000   0.000
 -0.027   0.000   0.000   0.156   0.000   0.000  -0.000   0.000   0.000   0.000   0.000   0.000  -0.000   0.000   0.000   0.000
  0.000  -0.027   0.000   0.000   0.160   0.000  -0.000   0.000   0.000   0.000  -0.000   0.000   0.000  -0.000   0.000   0.000
  0.000   0.000  -0.026   0.000   0.000   0.162   0.000   0.000   0.000   0.000   0.000   0.000   0.000   0.000   0.000   0.000
  0.000  -0.000   0.000  -0.000  -0.000   0.000   2.828   0.000   0.000  -0.000   0.000  -1.495  -0.000   0.000  -0.000   0.000
  0.000   0.000   0.000   0.000   0.000   0.000   0.000   3.001   0.000   0.000   0.000  -0.000  -1.900   0.000   0.000   0.000
 -0.000   0.000   0.000   0.000   0.000   0.000   0.000   0.000   3.312  -0.000   0.141   0.000   0.000  -1.834   0.000  -0.017
  0.000   0.000  -0.000   0.000   0.000   0.000  -0.000   0.000  -0.000   2.715   0.000  -0.000   0.000   0.000  -1.415  -0.000
  0.000  -0.000   0.000   0.000  -0.000   0.000   0.000   0.000   0.141   0.000   3.113   0.000   0.000  -0.018  -0.000  -1.729
  0.000   0.000   0.000   0.000   0.000   0.000  -1.495  -0.000   0.000  -0.000   0.000   1.569   0.000   0.000  -0.000   0.000
 -0.000   0.000   0.000  -0.000   0.000   0.000  -0.000  -1.900   0.000   0.000   0.000   0.000   2.012   0.000   0.000   0.000
 -0.000  -0.000  -0.000   0.000  -0.000   0.000   0.000   0.000  -1.834   0.000  -0.018   0.000   0.000   1.648  -0.000  -0.062
  0.000   0.000   0.000   0.000   0.000   0.000  -0.000   0.000   0.000  -1.415  -0.000  -0.000   0.000  -0.000   1.585  -0.000
  0.000   0.000   0.000   0.000   0.000   0.000   0.000   0.000  -0.017  -0.000  -1.729   0.000   0.000  -0.062  -0.000   1.621
  0.000  -0.000  -0.000   0.000  -0.000   0.000   0.000   0.000  -0.069   0.000   0.088   0.000   0.000   0.050   0.000  -0.006
  0.000   0.000   0.000   0.000   0.000   0.000   0.000   0.000   0.007   0.000  -0.016   0.000   0.000  -0.005  -0.000   0.006
 total augmentation occupancy for first ion, spin component:           2
  0.002   0.000   0.000   0.009   0.000   0.000   0.000   0.000   0.000   0.000   0.000   0.000  -0.000   0.000   0.000   0.000
  0.000   0.002  -0.000   0.000   0.009   0.000   0.000   0.000   0.000   0.000  -0.000   0.000   0.000  -0.000   0.000   0.000
  0.000  -0.000   0.002   0.000   0.000   0.010   0.000   0.000   0.000  -0.000   0.000   0.000   0.000  -0.000   0.000   0.000
  0.009   0.000   0.000  -0.003   0.000   0.000   0.000  -0.000   0.000   0.000   0.000   0.000  -0.000   0.000   0.000   0.000
  0.000   0.009   0.000   0.000   0.006   0.000   0.000   0.000  -0.000   0.000   0.000  -0.000   0.000   0.000   0.000   0.000
  0.000   0.000   0.010   0.000   0.000   0.008   0.000   0.000   0.000   0.000  -0.000   0.000   0.000   0.000   0.000   0.000
  0.000   0.000   0.000   0.000   0.000   0.000  -2.358   0.000   0.000   0.000  -0.000   1.025   0.000   0.000  -0.000  -0.000
  0.000   0.000   0.000  -0.000   0.000   0.000   0.000  -2.290   0.000   0.000   0.000   0.000   0.793   0.000   0.000   0.000
  0.000   0.000   0.000   0.000  -0.000   0.000   0.000   0.000  -2.733   0.000  -0.081   0.000   0.000   1.175  -0.000   0.123
  0.000   0.000  -0.000   0.000   0.000   0.000   0.000   0.000   0.000  -2.190  -0.000   0.000   0.000  -0.000   0.947  -0.000
  0.000  -0.000   0.000   0.000   0.000  -0.000  -0.000   0.000  -0.081  -0.000  -2.589  -0.000   0.000   0.122   0.000   1.035
  0.000   0.000   0.000   0.000  -0.000   0.000   1.025   0.000   0.000   0.000  -0.000  -0.247   0.000   0.000   0.000  -0.000
 -0.000   0.000   0.000  -0.000   0.000   0.000   0.000   0.793   0.000   0.000   0.000   0.000  -0.014   0.000   0.000   0.000
  0.000  -0.000  -0.000   0.000   0.000   0.000   0.000   0.000   1.175  -0.000   0.122   0.000   0.000  -0.372   0.000  -0.142
  0.000   0.000   0.000   0.000   0.000   0.000  -0.000   0.000  -0.000   0.947   0.000   0.000   0.000   0.000  -0.172  -0.000
  0.000   0.000   0.000   0.000   0.000   0.000  -0.000   0.000   0.123  -0.000   1.035  -0.000   0.000  -0.142  -0.000  -0.230
 -0.000   0.000   0.000   0.000  -0.000   0.000   0.000   0.000   0.004  -0.000  -0.050   0.000   0.000  -0.006  -0.000   0.072
  0.000  -0.000   0.000   0.000   0.000   0.000   0.000   0.000  -0.004   0.000   0.013   0.000   0.000   0.001   0.000  -0.005


------------------------ aborting loop because EDIFF is reached ----------------------------------------





 total charge

# of ion       s       p       d       tot
------------------------------------------
    1        0.337   6.294   6.014  12.645
    2        0.331   6.289   5.981  12.601
    3        0.331   6.289   5.981  12.601
    4        0.337   6.297   5.977  12.612
    5        0.337   6.297   5.977  12.612
    6        0.334   6.295   5.976  12.605
    7        0.337   6.294   6.014  12.645
    8        0.331   6.289   5.981  12.601
    9        0.331   6.289   5.981  12.601
   10        0.741   0.613   8.009   9.364
   11        0.741   0.613   8.009   9.364
   12        0.726   0.636   8.004   9.367
--------------------------------------------------
tot          5.216  58.495  77.904 141.615



 magnetization (x)

# of ion       s       p       d       tot
------------------------------------------
    1       -0.007   0.009  -2.724  -2.722
    2        0.012   0.002   2.720   2.734
    3        0.012   0.002   2.720   2.734
    4       -0.016  -0.025  -2.718  -2.759
    5       -0.016  -0.025  -2.718  -2.759
    6        0.006  -0.017   2.898   2.887
    7       -0.007   0.009  -2.724  -2.722
    8        0.012   0.002   2.720   2.734
    9        0.012   0.002   2.720   2.734
   10        0.008   0.019  -0.108  -0.081
   11        0.008   0.019  -0.108  -0.081
   12       -0.039  -0.090   0.378   0.249
--------------------------------------------------
tot         -0.017  -0.089   3.054   2.949
 
    FORLOC:  cpu time      0.0012: real time      0.0012
    FORNL :  cpu time      0.5946: real time      0.5981
    STRESS:  cpu time      4.4629: real time      4.4988
    FORCOR:  cpu time      0.0219: real time      0.0221
    OFIELD:  cpu time      0.0002: real time      0.0002

  FORCE on cell =-STRESS in cart. coord.  units (eV):
  Direction    XX          YY          ZZ          XY          YZ          ZX
  --------------------------------------------------------------------------------------
  Alpha Z  1025.24174  1025.24174  1025.24174
  Ewald   -5882.66397 -5882.66397 -5939.45463     0.00000    -0.00000     0.00000
  Hartree  1967.04109  1967.04109  1914.46679    -0.00000    -0.00000    -0.00000
  E(xc)    -942.02014  -942.02014  -941.94383    -0.00000     0.00000     0.00000
  Local     918.90351   918.90351  1038.91925    -0.00000    -0.00000     0.00000
  n-local  -224.67180  -239.57813  -232.98853    13.44202     0.02740    -0.01478
  augment  1442.69177  1442.69177  1436.45291     0.00000    -0.00000     0.00000
  Kinetic  1698.62583  1684.75432  1688.08165     1.56782     0.26786     0.47444
  Fock        0.00000     0.00000     0.00000     0.00000     0.00000     0.00000
  -------------------------------------------------------------------------------------
  Total     -11.24088   -11.24088   -11.22463     0.00000     0.00000     0.00000
  in kB    -108.49327  -108.49327  -108.33648     0.00000     0.00000     0.00000
  external pressure =     -108.44 kB  Pullay stress =        0.00 kB


 VOLUME and BASIS-vectors are now :
 -----------------------------------------------------------------------------
  energy-cutoff  :      520.00
  volume of cell :      166.00
      direct lattice vectors                 reciprocal lattice vectors
     3.785385272  0.000000000  0.000000000     0.264173903  0.000000000  0.000000000
     0.000000000  3.785385272  0.000000000     0.000000000  0.264173903  0.000000000
     0.000000000  0.000000000 11.584783235     0.000000000  0.000000000  0.086320130

  length of vectors
     3.785385272  3.785385272 11.584783235     0.264173903  0.264173903  0.086320130


 FORCES acting on ions:
    Electron-Ion                     Ewald-Force                    Non-Local-Force
 -----------------------------------------------------------------------------------------------
   -.719E-13 0.149E-11 -.112E+00   0.228E-14 -.464E-14 0.114E+00   0.549E-22 0.406E-22 -.278E-02
   -.719E-13 0.208E-11 -.125E+02   0.393E-14 0.455E-14 0.137E+02   -.471E-19 0.894E-18 -.119E+01
   -.602E-13 0.133E-11 0.127E+02   -.165E-14 0.221E-13 -.139E+02   0.126E-18 0.131E-17 0.119E+01
   0.102E-11 0.562E-11 0.152E+03   -.464E-13 0.482E-13 -.149E+03   0.440E-19 0.722E-18 -.246E+01
   0.106E-11 0.535E-11 -.152E+03   -.211E-13 0.159E-13 0.149E+03   -.346E-18 -.112E-17 0.245E+01
   0.108E-11 0.677E-11 0.115E+00   0.142E-13 0.103E-13 -.116E+00   0.239E-21 -.175E-21 0.207E-02
   0.111E-11 -.348E-13 -.112E+00   -.432E-13 -.376E-13 0.114E+00   0.355E-21 -.249E-22 -.278E-02
   0.109E-11 0.420E-12 -.125E+02   -.308E-13 -.343E-13 0.137E+02   -.548E-19 0.515E-18 -.119E+01
   0.110E-11 0.161E-12 0.127E+02   0.434E-14 -.237E-13 -.139E+02   0.703E-18 -.176E-18 0.119E+01
   -.422E-13 0.676E-13 0.432E+02   0.587E-13 -.436E-13 -.435E+02   0.105E-18 -.133E-17 0.338E+00
   -.462E-13 -.176E-12 -.432E+02   0.258E-13 0.384E-13 0.435E+02   0.706E-18 0.118E-17 -.341E+00
   -.472E-13 -.331E-13 -.373E-02   0.832E-14 0.173E-13 0.168E-02   0.465E-21 -.195E-21 0.355E-02
 -----------------------------------------------------------------------------------------------
   0.616E-11 0.232E-10 -.145E-03   -.256E-13 0.129E-13 -.192E-12   0.124E-17 0.199E-17 0.339E-04
 
 
 POSITION                                       TOTAL-FORCE (eV/Angst)
 -----------------------------------------------------------------------------------
      0.00000      1.89269      1.93075        -0.000000     -0.000000     -0.000722
      0.00000      1.89269      5.78954        -0.000000     -0.000000     -0.000653
      0.00000      1.89269      9.65693         0.000000      0.000000      0.000921
      1.89269      1.89269      0.12118         0.000000     -0.000000     -0.003557
      1.89269      1.89269      3.74021        -0.000000      0.000000      0.002882
      1.89269      1.89269      7.72330         0.000000      0.000000      0.001019
      1.89269      0.00000      1.93075        -0.000000     -0.000000     -0.000722
      1.89269      0.00000      5.78954        -0.000000     -0.000000     -0.000653
      1.89269      0.00000      9.65693         0.000000     -0.000000      0.000921
      0.00000      0.00000     11.54801        -0.000000     -0.000000     -0.004611
      0.00000      0.00000      3.89847        -0.000000     -0.000000      0.003838
      0.00000      0.00000      7.72309        -0.000000     -0.000000      0.001338
 -----------------------------------------------------------------------------------
    total drift:                                0.000000      0.000000     -0.000111


--------------------------------------------------------------------------------------------------------



  FREE ENERGIE OF THE ION-ELECTRON SYSTEM (eV)
  ---------------------------------------------------
  free  energy   TOTEN  =       -92.96566365 eV

  energy  without entropy=      -92.96978038  energy(sigma->0) =      -92.96703590
 


--------------------------------------------------------------------------------------------------------


    POTLOK:  cpu time      0.0375: real time      0.0377


--------------------------------------------------------------------------------------------------------




--------------------------------------------------------------------------------------------------------


  
 reached required accuracy - stopping structural energy minimisation
     LOOP+:  cpu time    164.7226: real time    167.0258
    4ORBIT:  cpu time      0.0000: real time      0.0000



 total charge

# of ion       s       p       d       tot
------------------------------------------
    1        0.337   6.294   6.014  12.645
    2        0.331   6.289   5.981  12.601
    3        0.331   6.289   5.981  12.601
    4        0.337   6.297   5.977  12.612
    5        0.337   6.297   5.977  12.612
    6        0.334   6.295   5.976  12.605
    7        0.337   6.294   6.014  12.645
    8        0.331   6.289   5.981  12.601
    9        0.331   6.289   5.981  12.601
   10        0.741   0.613   8.009   9.364
   11        0.741   0.613   8.009   9.364
   12        0.726   0.636   8.004   9.367
--------------------------------------------------
tot          5.216  58.495  77.904 141.615



 magnetization (x)

# of ion       s       p       d       tot
------------------------------------------
    1       -0.007   0.009  -2.724  -2.722
    2        0.012   0.002   2.720   2.734
    3        0.012   0.002   2.720   2.734
    4       -0.016  -0.025  -2.718  -2.759
    5       -0.016  -0.025  -2.718  -2.759
    6        0.006  -0.017   2.898   2.887
    7       -0.007   0.009  -2.724  -2.722
    8        0.012   0.002   2.720   2.734
    9        0.012   0.002   2.720   2.734
   10        0.008   0.019  -0.108  -0.081
   11        0.008   0.019  -0.108  -0.081
   12       -0.039  -0.090   0.378   0.249
--------------------------------------------------
tot         -0.017  -0.089   3.054   2.949
 

 total amount of memory used by VASP MPI-rank0   263218. kBytes
=======================================================================

   base      :      30000. kBytes
   nonl-proj :     110020. kBytes
   fftplans  :        955. kBytes
   grid      :       7297. kBytes
   one-center:        373. kBytes
   wavefun   :     114573. kBytes
 
  
  
 General timing and accounting informations for this job:
 ========================================================
  
                  Total CPU time used (sec):      182.327
                            User time (sec):      174.849
                          System time (sec):        7.478
                         Elapsed time (sec):      189.752
  
                   Maximum memory used (kb):      942040.
                   Average memory used (kb):          N/A
  
                          Minor page faults:       145985
                          Major page faults:          370
                 Voluntary context switches:        11382
