       N       E                     dE             d eps       ncg     rms          ort
DAV:   1     0.173503351689E+04    0.17350E+04   -0.93909E+04  8064   0.247E+03
DAV:   2     0.119430794389E+02   -0.17231E+04   -0.16940E+04  8064   0.599E+02
DAV:   3    -0.102251828226E+03   -0.11419E+03   -0.11296E+03  8064   0.158E+02
DAV:   4    -0.104764012301E+03   -0.25122E+01   -0.25103E+01  8064   0.249E+01
DAV:   5    -0.104820289841E+03   -0.56278E-01   -0.56276E-01  8064   0.385E+00
SDA:   6    -0.492908139696E+02    0.55529E+02   -0.56276E-01  8064   0.503E+03 0.000E+00
CGA:   7    -0.756175539279E+02   -0.26327E+02   -0.22976E+02  8064   0.271E+03 0.873E+02
CGA:   8    -0.858490546035E+02   -0.10232E+02   -0.86227E+01  8064   0.394E+02 0.905E+02
CGA:   9    -0.895852501911E+02   -0.37362E+01   -0.38168E+01  8064   0.340E+02-0.426E+00
CGA:  10    -0.903750868562E+02   -0.78984E+00   -0.59205E+00  8064   0.117E+02 0.116E+02
CGA:  11    -0.909183725537E+02   -0.54329E+00   -0.51989E+00  8064   0.176E+02 0.704E+00
CGA:  12    -0.916404841061E+02   -0.72211E+00   -0.70187E+00  8064   0.193E+02 0.672E+00
CGA:  13    -0.919150712855E+02   -0.27459E+00   -0.19873E+00  8064   0.796E+01 0.803E+01
CGA:  14    -0.920804913979E+02   -0.16542E+00   -0.18664E+00  8064   0.447E+01-0.113E+01
CGA:  15    -0.922044894886E+02   -0.12400E+00   -0.12927E+00  8064   0.790E+01-0.114E+00
CGA:  16    -0.923806086189E+02   -0.17612E+00   -0.17171E+00  8064   0.527E+01 0.265E+00
CGA:  17    -0.925162113075E+02   -0.13560E+00   -0.13805E+00  8064   0.621E+01-0.643E-01
CGA:  18    -0.927320898214E+02   -0.21588E+00   -0.19956E+00  8064   0.721E+01 0.560E+00
CGA:  19    -0.928458531046E+02   -0.11376E+00   -0.79092E-01  8064   0.296E+01 0.353E+01
CGA:  20    -0.929059510807E+02   -0.60098E-01   -0.63600E-01  8064   0.609E+00-0.220E+00
CGA:  21    -0.929489612436E+02   -0.43010E-01   -0.42749E-01  8064   0.212E+01 0.399E-03
CGA:  22    -0.930357415344E+02   -0.86780E-01   -0.86265E-01  8064   0.980E+00-0.511E-02
CGA:  23    -0.930573838537E+02   -0.21642E-01   -0.21905E-01  8064   0.440E+00-0.110E-01
CGA:  24    -0.930764206021E+02   -0.19037E-01   -0.18931E-01  8064   0.385E+00 0.162E-02
CGA:  25    -0.930867476284E+02   -0.10327E-01   -0.10439E-01  8064   0.216E+00-0.322E-02
CGA:  26    -0.931009165993E+02   -0.14169E-01   -0.14190E-01  8064   0.470E+00 0.311E-03
CGA:  27    -0.931161915043E+02   -0.15275E-01   -0.15543E-01  8064   0.154E+00-0.578E-02
CGA:  28    -0.931210645210E+02   -0.48730E-02   -0.48940E-02  8064   0.149E+00-0.219E-03
CGA:  29    -0.931298046806E+02   -0.87402E-02   -0.87467E-02  8064   0.119E+00 0.365E-03
CGA:  30    -0.931324597559E+02   -0.26551E-02   -0.26904E-02  8064   0.355E-01-0.924E-03
CGA:  31    -0.931347397449E+02   -0.22800E-02   -0.22826E-02  8064   0.717E-01 0.119E-03
CGA:  32    -0.931377584638E+02   -0.30187E-02   -0.30291E-02  8064   0.481E-01 0.912E-05
CGA:  33    -0.931402531730E+02   -0.24947E-02   -0.24945E-02  8064   0.633E-01 0.493E-04
CGA:  34    -0.931423201833E+02   -0.20670E-02   -0.20784E-02  8064   0.136E-01-0.169E-03
CGA:  35    -0.931427163042E+02   -0.39612E-03   -0.39747E-03  8064   0.108E-01-0.355E-04
CGA:  36    -0.931438957347E+02   -0.11794E-02   -0.11808E-02  8064   0.257E-01-0.358E-04
SDA:  37    -0.931446157210E+02   -0.71999E-03   -0.71952E-03  8064   0.833E-02-0.482E-04
CGA:  38    -0.931451846230E+02   -0.56890E-03   -0.56868E-03  8064   0.316E-02-0.190E-04
CGA:  39    -0.931457773906E+02   -0.59277E-03   -0.59748E-03  8064   0.191E-02-0.388E-04
CGA:  40    -0.931461866701E+02   -0.40928E-03   -0.42185E-03  8064   0.114E-02-0.855E-04
CGA:  41    -0.931462180358E+02   -0.31366E-04   -0.31022E-04  8064   0.407E-03-0.372E-05
CGA:  42    -0.931463000761E+02   -0.82040E-04   -0.83345E-04  8064   0.616E-03-0.952E-05
CGA:  43    -0.931463180509E+02   -0.17975E-04   -0.17822E-04  8064   0.221E-03-0.105E-05
CGA:  44    -0.931463580400E+02   -0.39989E-04   -0.40637E-04  8064   0.316E-03-0.562E-05
CGA:  45    -0.931463774902E+02   -0.19450E-04   -0.19416E-04  8064   0.220E-03 0.500E-06
CGA:  46    -0.931463845269E+02   -0.70367E-05   -0.70710E-05  8064   0.375E-04 0.195E-05
CGA:  47    -0.931463889036E+02   -0.43768E-05   -0.42877E-05  8064   0.796E-04 0.444E-05
CGA:  48    -0.931463936760E+02   -0.47724E-05   -0.48954E-05  8064   0.608E-04 0.474E-05
CGA:  49    -0.931463986726E+02   -0.49966E-05   -0.50171E-05  8064   0.125E-04 0.340E-05
CGA:  50    -0.931464004910E+02   -0.18184E-05   -0.22439E-05  8064   0.412E-04-0.420E-05
CGA:  51    -0.931464012252E+02   -0.73418E-06   -0.57926E-06  8064   0.124E-04-0.131E-05
   1 F= -.93146401E+02 E0= -.93148122E+02  d E =-.931464E+02  mag=     2.7949
       N       E                     dE             d eps       ncg     rms          ort
SDA:   1    -0.931435593319E+02    0.28412E-02    0.00000E+00  8064   0.315E-01 0.000E+00
CGA:   2    -0.931443559667E+02   -0.79663E-03   -0.79643E-03  8064   0.109E-01-0.436E-05
CGA:   3    -0.931453748892E+02   -0.10189E-02   -0.10191E-02  8064   0.347E-02-0.120E-04
CGA:   4    -0.931458075123E+02   -0.43262E-03   -0.43306E-03  8064   0.704E-02-0.105E-04
CGA:   5    -0.931461012264E+02   -0.29371E-03   -0.29346E-03  8064   0.332E-02-0.620E-05
CGA:   6    -0.931462791253E+02   -0.17790E-03   -0.17785E-03  8064   0.747E-03-0.135E-05
CGA:   7    -0.931463190370E+02   -0.39912E-04   -0.39960E-04  8064   0.817E-03 0.165E-05
CGA:   8    -0.931463733550E+02   -0.54318E-04   -0.54375E-04  8064   0.228E-03 0.454E-05
CGA:   9    -0.931463881534E+02   -0.14798E-04   -0.14814E-04  8064   0.139E-03 0.116E-05
CGA:  10    -0.931463934071E+02   -0.52537E-05   -0.52572E-05  8064   0.881E-04 0.724E-07
CGA:  11    -0.931464026437E+02   -0.92366E-05   -0.92559E-05  8064   0.228E-04-0.677E-06
CGA:  12    -0.931464041129E+02   -0.14692E-05   -0.14675E-05  8064   0.357E-04-0.280E-06
CGA:  13    -0.931464063005E+02   -0.21876E-05   -0.21813E-05  8064   0.128E-04-0.441E-06
CGA:  14    -0.931464070826E+02   -0.78205E-06   -0.77920E-06  8064   0.107E-04-0.189E-06
   2 F= -.93146407E+02 E0= -.93148157E+02  d E =-.585739E-05  mag=     2.7947
       N       E                     dE             d eps       ncg     rms          ort
SDA:   1    -0.931451539032E+02    0.12524E-02    0.00000E+00  8064   0.104E-01 0.000E+00
CGA:   2    -0.931455047730E+02   -0.35087E-03   -0.35094E-03  8064   0.629E-02-0.375E-05
CGA:   3    -0.931458859080E+02   -0.38114E-03   -0.38115E-03  8064   0.229E-02-0.396E-06
CGA:   4    -0.931460802284E+02   -0.19432E-03   -0.19432E-03  8064   0.206E-02-0.117E-06
CGA:   5    -0.931462059501E+02   -0.12572E-03   -0.12571E-03  8064   0.231E-02-0.117E-05
CGA:   6    -0.931463424027E+02   -0.13645E-03   -0.13645E-03  8064   0.344E-03-0.827E-06
CGA:   7    -0.931463598502E+02   -0.17448E-04   -0.17451E-04  8064   0.406E-03 0.550E-07
CGA:   8    -0.931463859575E+02   -0.26107E-04   -0.26109E-04  8064   0.130E-03 0.226E-06
CGA:   9    -0.931463955323E+02   -0.95748E-05   -0.95753E-05  8064   0.522E-04 0.110E-06
CGA:  10    -0.931463979558E+02   -0.24235E-05   -0.24248E-05  8064   0.517E-04 0.107E-07
CGA:  11    -0.931464020383E+02   -0.40825E-05   -0.40797E-05  8064   0.176E-04 0.134E-06
CGA:  12    -0.931464027763E+02   -0.73802E-06   -0.73798E-06  8064   0.124E-04-0.746E-08
   3 F= -.93146403E+02 E0= -.93148162E+02  d E =-.155118E-05  mag=     2.7948
       N       E                     dE             d eps       ncg     rms          ort
SDA:   1    -0.931415861847E+02    0.48159E-02    0.00000E+00  8064   0.315E-01 0.000E+00
CGA:   2    -0.931429419893E+02   -0.13558E-02   -0.13563E-02  8064   0.277E-01-0.101E-04
CGA:   3    -0.931443761636E+02   -0.14342E-02   -0.14342E-02  8064   0.810E-02-0.253E-05
CGA:   4    -0.931451412371E+02   -0.76507E-03   -0.76511E-03  8064   0.854E-02-0.171E-05
CGA:   5    -0.931457012526E+02   -0.56002E-03   -0.56001E-03  8064   0.923E-02-0.285E-05
CGA:   6    -0.931461324653E+02   -0.43121E-03   -0.43125E-03  8064   0.115E-02-0.128E-05
CGA:   7    -0.931462130640E+02   -0.80599E-04   -0.80596E-04  8064   0.196E-02 0.285E-06
CGA:   8    -0.931463126237E+02   -0.99560E-04   -0.99569E-04  8064   0.382E-03 0.645E-06
CGA:   9    -0.931463415904E+02   -0.28967E-04   -0.28965E-04  8064   0.176E-03 0.202E-06
CGA:  10    -0.931463532359E+02   -0.11645E-04   -0.11644E-04  8064   0.253E-03 0.707E-07
CGA:  11    -0.931463658777E+02   -0.12642E-04   -0.12647E-04  8064   0.491E-04 0.243E-06
CGA:  12    -0.931463689301E+02   -0.30524E-05   -0.30520E-05  8064   0.584E-04-0.734E-07
CGA:  13    -0.931463723438E+02   -0.34137E-05   -0.34121E-05  8064   0.327E-04-0.198E-06
CGA:  14    -0.931463747924E+02   -0.24487E-05   -0.24488E-05  8064   0.116E-04 0.484E-07
CGA:  15    -0.931463754471E+02   -0.65471E-06   -0.65465E-06  8064   0.164E-04-0.146E-07
CGA:  16    -0.931463765933E+02   -0.11462E-05   -0.11456E-05  8064   0.376E-05-0.344E-07
CGA:  17    -0.931463768773E+02   -0.28400E-06   -0.28452E-06  8064   0.549E-05 0.563E-07
   4 F= -.93146377E+02 E0= -.93148160E+02  d E =0.243478E-04  mag=     2.7949
       N       E                     dE             d eps       ncg     rms          ort
SDA:   1    -0.931445197517E+02    0.18568E-02    0.00000E+00  8064   0.107E-01 0.000E+00
CGA:   2    -0.931451098467E+02   -0.59009E-03   -0.59009E-03  8064   0.115E-01-0.229E-05
CGA:   3    -0.931456211951E+02   -0.51135E-03   -0.51131E-03  8064   0.303E-02-0.519E-06
CGA:   4    -0.931458782982E+02   -0.25710E-03   -0.25706E-03  8064   0.497E-02 0.116E-05
CGA:   5    -0.931461440883E+02   -0.26579E-03   -0.26580E-03  8064   0.256E-02 0.349E-06
CGA:   6    -0.931463028684E+02   -0.15878E-03   -0.15878E-03  8064   0.426E-03 0.135E-05
CGA:   7    -0.931463466287E+02   -0.43760E-04   -0.43784E-04  8064   0.727E-03-0.704E-06
CGA:   8    -0.931463720399E+02   -0.25411E-04   -0.25401E-04  8064   0.183E-03-0.405E-06
CGA:   9    -0.931463836366E+02   -0.11597E-04   -0.11596E-04  8064   0.826E-04-0.611E-07
CGA:  10    -0.931463876324E+02   -0.39958E-05   -0.39940E-05  8064   0.746E-04-0.130E-06
CGA:  11    -0.931463941057E+02   -0.64733E-05   -0.64744E-05  8064   0.143E-04-0.144E-07
CGA:  12    -0.931463952842E+02   -0.11785E-05   -0.11770E-05  8064   0.265E-04 0.107E-06
CGA:  13    -0.931463965772E+02   -0.12930E-05   -0.12951E-05  8064   0.105E-04 0.180E-06
CGA:  14    -0.931463972441E+02   -0.66683E-06   -0.66755E-06  8064   0.524E-05 0.331E-07
   5 F= -.93146397E+02 E0= -.93148167E+02  d E =0.398112E-05  mag=     2.7950
       N       E                     dE             d eps       ncg     rms          ort
SDA:   1    -0.931458876254E+02    0.50895E-03    0.00000E+00  8064   0.106E-01 0.000E+00
CGA:   2    -0.931461211901E+02   -0.23356E-03   -0.23363E-03  8064   0.136E-02-0.505E-05
CGA:   3    -0.931462316915E+02   -0.11050E-03   -0.11051E-03  8064   0.127E-02-0.698E-06
CGA:   4    -0.931462815371E+02   -0.49846E-04   -0.49850E-04  8064   0.653E-03 0.186E-06
CGA:   5    -0.931463324834E+02   -0.50946E-04   -0.50942E-04  8064   0.442E-03 0.279E-06
CGA:   6    -0.931463852304E+02   -0.52747E-04   -0.52740E-04  8064   0.124E-03 0.140E-06
CGA:   7    -0.931463898230E+02   -0.45926E-05   -0.45896E-05  8064   0.897E-04-0.116E-06
CGA:   8    -0.931463980052E+02   -0.81822E-05   -0.81837E-05  8064   0.518E-04-0.691E-07
CGA:   9    -0.931464000647E+02   -0.20595E-05   -0.20596E-05  8064   0.272E-04-0.175E-07
CGA:  10    -0.931464015238E+02   -0.14592E-05   -0.14581E-05  8064   0.104E-04-0.117E-06
CGA:  11    -0.931464027626E+02   -0.12388E-05   -0.12347E-05  8064   0.602E-05 0.908E-07
CGA:  12    -0.931464029903E+02   -0.22766E-06   -0.22807E-06  8064   0.393E-05-0.305E-08
   6 F= -.93146403E+02 E0= -.93148166E+02  d E =-.176510E-05  mag=     2.7949
       N       E                     dE             d eps       ncg     rms          ort
SDA:   1    -0.931463090041E+02    0.93759E-04    0.00000E+00  8064   0.364E-02 0.000E+00
CGA:   2    -0.931463813340E+02   -0.72330E-04   -0.72335E-04  8064   0.235E-03-0.141E-05
CGA:   3    -0.931463917271E+02   -0.10393E-04   -0.10388E-04  8064   0.607E-04-0.303E-06
CGA:   4    -0.931463949808E+02   -0.32537E-05   -0.32529E-05  8064   0.640E-04-0.857E-07
CGA:   5    -0.931463997942E+02   -0.48135E-05   -0.48163E-05  8064   0.214E-04-0.308E-06
CGA:   6    -0.931464026374E+02   -0.28432E-05   -0.28401E-05  8064   0.158E-04 0.168E-07
CGA:   7    -0.931464036374E+02   -0.99993E-06   -0.10003E-05  8064   0.135E-04 0.779E-07
   7 F= -.93146404E+02 E0= -.93148165E+02  d E =-.241220E-05  mag=     2.7949
       N       E                     dE             d eps       ncg     rms          ort
SDA:   1    -0.931463593005E+02    0.43337E-04    0.00000E+00  8064   0.200E-02 0.000E+00
CGA:   2    -0.931463966125E+02   -0.37312E-04   -0.37306E-04  8064   0.815E-04 0.599E-08
CGA:   3    -0.931464008030E+02   -0.41905E-05   -0.41909E-05  8064   0.162E-04-0.793E-08
CGA:   4    -0.931464019540E+02   -0.11511E-05   -0.11515E-05  8064   0.219E-04-0.528E-07
CGA:   5    -0.931464031275E+02   -0.11735E-05   -0.11730E-05  8064   0.604E-05-0.190E-06
CGA:   6    -0.931464037091E+02   -0.58156E-06   -0.58549E-06  8064   0.384E-05-0.896E-07
   8 F= -.93146404E+02 E0= -.93148165E+02  d E =-.248393E-05  mag=     2.7948
