       N       E                     dE             d eps       ncg     rms          ort
DAV:   1     0.173647334918E+04    0.17365E+04   -0.94082E+04  8064   0.247E+03
DAV:   2     0.116209426637E+02   -0.17249E+04   -0.16955E+04  8064   0.599E+02
DAV:   3    -0.102251938546E+03   -0.11387E+03   -0.11261E+03  8064   0.158E+02
DAV:   4    -0.104724088719E+03   -0.24722E+01   -0.24696E+01  8064   0.246E+01
DAV:   5    -0.104780432650E+03   -0.56344E-01   -0.56340E-01  8064   0.384E+00
SDA:   6    -0.491614342639E+02    0.55619E+02   -0.56340E-01  8064   0.519E+03 0.000E+00
CGA:   7    -0.741936201656E+02   -0.25032E+02   -0.21440E+02  8064   0.271E+03 0.104E+03
CGA:   8    -0.857358600303E+02   -0.11542E+02   -0.95907E+01  8064   0.400E+02 0.968E+02
CGA:   9    -0.896251776554E+02   -0.38893E+01   -0.39663E+01  8064   0.326E+02-0.378E+00
CGA:  10    -0.904170639456E+02   -0.79189E+00   -0.61629E+00  8064   0.108E+02 0.952E+01
CGA:  11    -0.909966602594E+02   -0.57960E+00   -0.56173E+00  8064   0.198E+02 0.425E+00
CGA:  12    -0.917523607442E+02   -0.75570E+00   -0.69158E+00  8064   0.166E+02 0.211E+01
CGA:  13    -0.920283679193E+02   -0.27601E+00   -0.21590E+00  8064   0.473E+01 0.539E+01
CGA:  14    -0.921391589502E+02   -0.11079E+00   -0.12307E+00  8064   0.378E+01-0.554E+00
CGA:  15    -0.922772016402E+02   -0.13804E+00   -0.14229E+00  8064   0.912E+01-0.618E-01
CGA:  16    -0.924838700879E+02   -0.20667E+00   -0.15845E+00  8064   0.616E+01 0.281E+01
CGA:  17    -0.926444888628E+02   -0.16062E+00   -0.13006E+00  8064   0.352E+01 0.196E+01
CGA:  18    -0.927971097008E+02   -0.15262E+00   -0.15540E+00  8064   0.471E+01-0.455E-01
CGA:  19    -0.928818165190E+02   -0.84707E-01   -0.85391E-01  8064   0.235E+01-0.138E-01
CGA:  20    -0.929147047378E+02   -0.32888E-01   -0.34604E-01  8064   0.115E+01-0.106E+00
CGA:  21    -0.929430967674E+02   -0.28392E-01   -0.28925E-01  8064   0.175E+01-0.167E-01
CGA:  22    -0.929907243489E+02   -0.47628E-01   -0.48539E-01  8064   0.177E+01-0.252E-01
CGA:  23    -0.930196558515E+02   -0.28932E-01   -0.30348E-01  8064   0.866E+00-0.691E-01
CGA:  24    -0.930392352229E+02   -0.19579E-01   -0.19766E-01  8064   0.101E+01-0.589E-02
CGA:  25    -0.930687573748E+02   -0.29522E-01   -0.29390E-01  8064   0.963E+00 0.420E-02
CGA:  26    -0.930843407410E+02   -0.15583E-01   -0.15788E-01  8064   0.304E+00-0.110E-01
CGA:  27    -0.930901667376E+02   -0.58260E-02   -0.59286E-02  8064   0.252E+00-0.333E-02
CGA:  28    -0.930997402454E+02   -0.95735E-02   -0.96008E-02  8064   0.448E+00 0.699E-03
CGA:  29    -0.931103290361E+02   -0.10589E-01   -0.10796E-01  8064   0.267E+00-0.619E-02
CGA:  30    -0.931159200239E+02   -0.55910E-02   -0.56218E-02  8064   0.219E+00-0.782E-03
CGA:  31    -0.931233966453E+02   -0.74766E-02   -0.74541E-02  8064   0.283E+00 0.735E-03
CGA:  32    -0.931290868247E+02   -0.56902E-02   -0.57447E-02  8064   0.981E-01-0.176E-02
CGA:  33    -0.931307596094E+02   -0.16728E-02   -0.16949E-02  8064   0.505E-01-0.820E-03
CGA:  34    -0.931326455807E+02   -0.18860E-02   -0.18894E-02  8064   0.924E-01 0.919E-04
CGA:  35    -0.931355141851E+02   -0.28686E-02   -0.28787E-02  8064   0.732E-01-0.122E-03
CGA:  36    -0.931370416483E+02   -0.15275E-02   -0.15329E-02  8064   0.483E-01-0.173E-03
SDA:  37    -0.931388185984E+02   -0.17770E-02   -0.17741E-02  8064   0.752E-01 0.464E-04
CGA:  38    -0.931406378291E+02   -0.18192E-02   -0.18270E-02  8064   0.107E-01-0.209E-03
CGA:  39    -0.931418446259E+02   -0.12068E-02   -0.12107E-02  8064   0.123E-01-0.611E-04
CGA:  40    -0.931439590844E+02   -0.21145E-02   -0.21196E-02  8064   0.571E-02-0.473E-04
CGA:  41    -0.931444426405E+02   -0.48356E-03   -0.48383E-03  8064   0.739E-02-0.173E-04
CGA:  42    -0.931447600226E+02   -0.31738E-03   -0.31691E-03  8064   0.175E-02-0.172E-04
CGA:  43    -0.931449738272E+02   -0.21380E-03   -0.21463E-03  8064   0.135E-02-0.120E-04
CGA:  44    -0.931452848357E+02   -0.31101E-03   -0.30723E-03  8064   0.198E-02 0.240E-04
CGA:  45    -0.931453439064E+02   -0.59071E-04   -0.59020E-04  8064   0.392E-03 0.169E-05
CGA:  46    -0.931454249213E+02   -0.81015E-04   -0.88110E-04  8064   0.630E-03-0.470E-04
CGA:  47    -0.931454406320E+02   -0.15711E-04   -0.15142E-04  8064   0.181E-03-0.715E-05
CGA:  48    -0.931454576839E+02   -0.17052E-04   -0.17278E-04  8064   0.248E-03-0.126E-04
CGA:  49    -0.931454729321E+02   -0.15248E-04   -0.15000E-04  8064   0.364E-03-0.136E-04
CGA:  50    -0.931454908103E+02   -0.17878E-04   -0.17294E-04  8064   0.964E-04-0.180E-04
CGA:  51    -0.931454953540E+02   -0.45437E-05   -0.43391E-05  8064   0.102E-03-0.528E-05
CGA:  52    -0.931455040244E+02   -0.86704E-05   -0.88872E-05  8064   0.599E-04-0.140E-04
CGA:  53    -0.931455057021E+02   -0.16777E-05   -0.16128E-05  8064   0.341E-04-0.116E-06
CGA:  54    -0.931455090697E+02   -0.33677E-05   -0.32960E-05  8064   0.395E-04 0.463E-05
CGA:  55    -0.931455108658E+02   -0.17961E-05   -0.19278E-05  8064   0.367E-04 0.506E-05
CGA:  56    -0.931455129170E+02   -0.20512E-05   -0.21952E-05  8064   0.690E-05 0.760E-05
CGA:  57    -0.931455131236E+02   -0.20662E-06   -0.25809E-06  8064   0.397E-05 0.217E-05
   1 F= -.93145513E+02 E0= -.93147634E+02  d E =-.931455E+02  mag=     2.8406
       N       E                     dE             d eps       ncg     rms          ort
SDA:   1    -0.931344879957E+02    0.11025E-01    0.00000E+00  8064   0.507E-01 0.000E+00
CGA:   2    -0.931402380817E+02   -0.57501E-02   -0.57495E-02  8064   0.358E-01 0.113E-04
CGA:   3    -0.931413845661E+02   -0.11465E-02   -0.11465E-02  8064   0.193E-01 0.569E-06
CGA:   4    -0.931443994467E+02   -0.30149E-02   -0.30133E-02  8064   0.174E-01 0.157E-04
CGA:   5    -0.931449418904E+02   -0.54244E-03   -0.54260E-03  8064   0.509E-02-0.133E-05
CGA:   6    -0.931453233605E+02   -0.38147E-03   -0.38147E-03  8064   0.341E-02-0.785E-06
CGA:   7    -0.931456256781E+02   -0.30232E-03   -0.30238E-03  8064   0.164E-02-0.451E-05
CGA:   8    -0.931456703227E+02   -0.44645E-04   -0.44612E-04  8064   0.509E-03-0.110E-05
CGA:   9    -0.931457505885E+02   -0.80266E-04   -0.80399E-04  8064   0.349E-03-0.155E-05
CGA:  10    -0.931457611654E+02   -0.10577E-04   -0.10565E-04  8064   0.114E-03-0.324E-06
CGA:  11    -0.931457750581E+02   -0.13893E-04   -0.13894E-04  8064   0.127E-03-0.178E-07
CGA:  12    -0.931457814722E+02   -0.64141E-05   -0.64168E-05  8064   0.803E-04 0.120E-06
CGA:  13    -0.931457844214E+02   -0.29492E-05   -0.29520E-05  8064   0.216E-04 0.931E-07
CGA:  14    -0.931457880003E+02   -0.35788E-05   -0.35791E-05  8064   0.342E-04 0.115E-07
CGA:  15    -0.931457890964E+02   -0.10961E-05   -0.10971E-05  8064   0.827E-05 0.125E-07
CGA:  16    -0.931457899148E+02   -0.81845E-06   -0.81373E-06  8064   0.861E-05 0.220E-06
   2 F= -.93145790E+02 E0= -.93147881E+02  d E =-.276791E-03  mag=     2.8348
       N       E                     dE             d eps       ncg     rms          ort
SDA:   1    -0.930437913096E+02    0.10200E+00    0.00000E+00  8064   0.493E+00 0.000E+00
CGA:   2    -0.930859931686E+02   -0.42202E-01   -0.42195E-01  8064   0.576E+00 0.364E-03
CGA:   3    -0.931058889758E+02   -0.19896E-01   -0.19865E-01  8064   0.147E+00 0.521E-03
CGA:   4    -0.931246028832E+02   -0.18714E-01   -0.18705E-01  8064   0.335E+00 0.110E-03
CGA:   5    -0.931368649901E+02   -0.12262E-01   -0.12270E-01  8064   0.750E-01-0.155E-03
CGA:   6    -0.931413476296E+02   -0.44826E-02   -0.44819E-02  8064   0.234E-01-0.872E-05
CGA:   7    -0.931445398852E+02   -0.31923E-02   -0.31919E-02  8064   0.209E-01 0.385E-05
CGA:   8    -0.931451628191E+02   -0.62293E-03   -0.62278E-03  8064   0.592E-02 0.351E-07
CGA:   9    -0.931456273439E+02   -0.46452E-03   -0.46453E-03  8064   0.486E-02-0.115E-05
CGA:  10    -0.931458658432E+02   -0.23850E-03   -0.23851E-03  8064   0.399E-02-0.109E-05
CGA:  11    -0.931460866272E+02   -0.22078E-03   -0.22077E-03  8064   0.561E-03 0.453E-06
CGA:  12    -0.931461813315E+02   -0.94704E-04   -0.94500E-04  8064   0.117E-02 0.214E-05
CGA:  13    -0.931462199592E+02   -0.38628E-04   -0.38662E-04  8064   0.284E-03 0.702E-06
CGA:  14    -0.931462382218E+02   -0.18263E-04   -0.18260E-04  8064   0.217E-03-0.303E-06
CGA:  15    -0.931462513040E+02   -0.13082E-04   -0.13078E-04  8064   0.255E-03-0.362E-06
CGA:  16    -0.931462678620E+02   -0.16558E-04   -0.16558E-04  8064   0.427E-04 0.230E-06
CGA:  17    -0.931462724874E+02   -0.46254E-05   -0.45904E-05  8064   0.725E-04 0.105E-05
CGA:  18    -0.931462755811E+02   -0.30937E-05   -0.31194E-05  8064   0.311E-04 0.753E-06
CGA:  19    -0.931462780130E+02   -0.24319E-05   -0.24319E-05  8064   0.255E-04-0.200E-08
CGA:  20    -0.931462791021E+02   -0.10891E-05   -0.10757E-05  8064   0.156E-04-0.422E-06
CGA:  21    -0.931462804709E+02   -0.13689E-05   -0.13891E-05  8064   0.602E-05-0.113E-05
CGA:  22    -0.931462807990E+02   -0.32809E-06   -0.32834E-06  8064   0.640E-05 0.475E-07
   3 F= -.93146281E+02 E0= -.93148176E+02  d E =-.767675E-03  mag=     2.8171
       N       E                     dE             d eps       ncg     rms          ort
SDA:   1    -0.931429996086E+02    0.32809E-02    0.00000E+00  8064   0.202E-01 0.000E+00
CGA:   2    -0.931439222695E+02   -0.92266E-03   -0.92262E-03  8064   0.199E-01-0.381E-05
CGA:   3    -0.931450040554E+02   -0.10818E-02   -0.10818E-02  8064   0.494E-02-0.110E-05
CGA:   4    -0.931454477560E+02   -0.44370E-03   -0.44363E-03  8064   0.884E-02 0.267E-05
CGA:   5    -0.931459313607E+02   -0.48360E-03   -0.48367E-03  8064   0.386E-02 0.250E-05
CGA:   6    -0.931461482707E+02   -0.21691E-03   -0.21694E-03  8064   0.767E-03 0.228E-05
CGA:   7    -0.931462039548E+02   -0.55684E-04   -0.55685E-04  8064   0.142E-02-0.545E-06
CGA:   8    -0.931462766420E+02   -0.72687E-04   -0.72670E-04  8064   0.142E-03-0.106E-05
CGA:   9    -0.931462893414E+02   -0.12699E-04   -0.12705E-04  8064   0.226E-03-0.290E-06
CGA:  10    -0.931462999116E+02   -0.10570E-04   -0.10561E-04  8064   0.793E-04-0.423E-06
CGA:  11    -0.931463048291E+02   -0.49175E-05   -0.49174E-05  8064   0.332E-04-0.181E-06
CGA:  12    -0.931463062803E+02   -0.14511E-05   -0.14512E-05  8064   0.309E-04-0.545E-08
CGA:  13    -0.931463092831E+02   -0.30028E-05   -0.30018E-05  8064   0.119E-04 0.174E-07
CGA:  14    -0.931463100222E+02   -0.73913E-06   -0.73918E-06  8064   0.839E-05-0.414E-07
   4 F= -.93146310E+02 E0= -.93148170E+02  d E =-.796899E-03  mag=     2.8138
       N       E                     dE             d eps       ncg     rms          ort
SDA:   1    -0.931333113617E+02    0.12998E-01    0.00000E+00  8064   0.716E-01 0.000E+00
CGA:   2    -0.931373655484E+02   -0.40542E-02   -0.40545E-02  8064   0.824E-01-0.268E-05
CGA:   3    -0.931411933131E+02   -0.38278E-02   -0.38274E-02  8064   0.190E-01-0.554E-05
CGA:   4    -0.931428059532E+02   -0.16126E-02   -0.16127E-02  8064   0.401E-01-0.206E-05
CGA:   5    -0.931451416230E+02   -0.23357E-02   -0.23358E-02  8064   0.903E-02 0.136E-04
CGA:   6    -0.931456919828E+02   -0.55036E-03   -0.55039E-03  8064   0.312E-02 0.207E-05
CGA:   7    -0.931459923466E+02   -0.30036E-03   -0.30041E-03  8064   0.553E-02-0.166E-05
CGA:   8    -0.931461834305E+02   -0.19108E-03   -0.19105E-03  8064   0.549E-03-0.669E-06
CGA:   9    -0.931462260919E+02   -0.42661E-04   -0.42667E-04  8064   0.102E-02-0.587E-06
CGA:  10    -0.931462842939E+02   -0.58202E-04   -0.58191E-04  8064   0.139E-03-0.120E-05
CGA:  11    -0.931462960441E+02   -0.11750E-04   -0.11742E-04  8064   0.141E-03 0.453E-06
CGA:  12    -0.931463045772E+02   -0.85331E-05   -0.85347E-05  8064   0.159E-03 0.120E-06
CGA:  13    -0.931463122268E+02   -0.76496E-05   -0.76508E-05  8064   0.268E-04 0.610E-07
CGA:  14    -0.931463139163E+02   -0.16896E-05   -0.16896E-05  8064   0.422E-04-0.176E-07
CGA:  15    -0.931463176610E+02   -0.37447E-05   -0.37503E-05  8064   0.103E-04-0.223E-06
CGA:  16    -0.931463183489E+02   -0.68785E-06   -0.68791E-06  8064   0.110E-04 0.299E-06
   5 F= -.93146318E+02 E0= -.93148111E+02  d E =-.805225E-03  mag=     2.8074
       N       E                     dE             d eps       ncg     rms          ort
SDA:   1    -0.931446891857E+02    0.16285E-02    0.00000E+00  8064   0.186E-01 0.000E+00
CGA:   2    -0.931451690539E+02   -0.47987E-03   -0.48001E-03  8064   0.641E-02-0.726E-05
CGA:   3    -0.931456815371E+02   -0.51248E-03   -0.51251E-03  8064   0.296E-02-0.171E-05
CGA:   4    -0.931459252397E+02   -0.24370E-03   -0.24367E-03  8064   0.236E-02 0.163E-05
CGA:   5    -0.931460630259E+02   -0.13779E-03   -0.13780E-03  8064   0.275E-02 0.947E-06
CGA:   6    -0.931462356924E+02   -0.17267E-03   -0.17267E-03  8064   0.476E-03 0.178E-05
CGA:   7    -0.931462540506E+02   -0.18358E-04   -0.18362E-04  8064   0.361E-03 0.890E-07
CGA:   8    -0.931462867302E+02   -0.32680E-04   -0.32686E-04  8064   0.158E-03-0.297E-06
CGA:   9    -0.931462974945E+02   -0.10764E-04   -0.10766E-04  8064   0.765E-04-0.504E-06
CGA:  10    -0.931463001609E+02   -0.26663E-05   -0.26612E-05  8064   0.424E-04-0.166E-06
CGA:  11    -0.931463048423E+02   -0.46814E-05   -0.46892E-05  8064   0.249E-04-0.140E-06
CGA:  12    -0.931463057690E+02   -0.92672E-06   -0.92589E-06  8064   0.118E-04-0.556E-08
   6 F= -.93146306E+02 E0= -.93148075E+02  d E =-.792645E-03  mag=     2.8053
       N       E                     dE             d eps       ncg     rms          ort
SDA:   1    -0.931291804947E+02    0.17124E-01    0.00000E+00  8064   0.870E-01 0.000E+00
CGA:   2    -0.931344703599E+02   -0.52899E-02   -0.52900E-02  8064   0.103E+00 0.444E-05
CGA:   3    -0.931389480802E+02   -0.44777E-02   -0.44777E-02  8064   0.298E-01-0.761E-05
CGA:   4    -0.931415231120E+02   -0.25750E-02   -0.25754E-02  8064   0.451E-01-0.131E-04
CGA:   5    -0.931439001702E+02   -0.23771E-02   -0.23772E-02  8064   0.265E-01 0.474E-05
CGA:   6    -0.931454241798E+02   -0.15240E-02   -0.15241E-02  8064   0.361E-02 0.609E-05
CGA:   7    -0.931459178811E+02   -0.49370E-03   -0.49373E-03  8064   0.749E-02-0.461E-06
CGA:   8    -0.931461377822E+02   -0.21990E-03   -0.21988E-03  8064   0.102E-02 0.165E-06
CGA:   9    -0.931462299499E+02   -0.92168E-04   -0.92203E-04  8064   0.128E-02-0.139E-05
CGA:  10    -0.931462921874E+02   -0.62238E-04   -0.62215E-04  8064   0.764E-03-0.129E-05
CGA:  11    -0.931463389555E+02   -0.46768E-04   -0.46767E-04  8064   0.190E-03-0.571E-07
CGA:  12    -0.931463618678E+02   -0.22912E-04   -0.22906E-04  8064   0.410E-03 0.124E-06
CGA:  13    -0.931463770153E+02   -0.15147E-04   -0.15156E-04  8064   0.133E-03 0.223E-06
CGA:  14    -0.931463861643E+02   -0.91490E-05   -0.91492E-05  8064   0.612E-04 0.304E-06
CGA:  15    -0.931463903775E+02   -0.42131E-05   -0.42138E-05  8064   0.862E-04-0.153E-06
CGA:  16    -0.931463954824E+02   -0.51049E-05   -0.51041E-05  8064   0.161E-04-0.707E-07
CGA:  17    -0.931463969926E+02   -0.15102E-05   -0.15080E-05  8064   0.293E-04 0.112E-06
CGA:  18    -0.931463981267E+02   -0.11341E-05   -0.11349E-05  8064   0.771E-05 0.616E-07
CGA:  19    -0.931463987408E+02   -0.61402E-06   -0.61654E-06  8064   0.551E-05-0.101E-06
   7 F= -.93146399E+02 E0= -.93148140E+02  d E =-.929718E-04  mag=     2.7975
       N       E                     dE             d eps       ncg     rms          ort
SDA:   1    -0.931448509061E+02    0.15472E-02    0.00000E+00  8064   0.238E-01 0.000E+00
CGA:   2    -0.931454055683E+02   -0.55466E-03   -0.55499E-03  8064   0.441E-02-0.146E-04
CGA:   3    -0.931458093463E+02   -0.40378E-03   -0.40379E-03  8064   0.422E-02-0.728E-06
CGA:   4    -0.931459707000E+02   -0.16135E-03   -0.16136E-03  8064   0.224E-02 0.617E-06
CGA:   5    -0.931461643172E+02   -0.19362E-03   -0.19360E-03  8064   0.173E-02 0.798E-06
CGA:   6    -0.931463328099E+02   -0.16849E-03   -0.16846E-03  8064   0.457E-03 0.834E-06
CGA:   7    -0.931463495231E+02   -0.16713E-04   -0.16709E-04  8064   0.314E-03-0.201E-06
CGA:   8    -0.931463788594E+02   -0.29336E-04   -0.29340E-04  8064   0.195E-03-0.199E-06
CGA:   9    -0.931463863240E+02   -0.74646E-05   -0.74611E-05  8064   0.993E-04-0.116E-06
CGA:  10    -0.931463920786E+02   -0.57546E-05   -0.57511E-05  8064   0.408E-04-0.374E-06
CGA:  11    -0.931463973499E+02   -0.52713E-05   -0.52844E-05  8064   0.353E-04-0.215E-06
CGA:  12    -0.931463984973E+02   -0.11474E-05   -0.11454E-05  8064   0.156E-04-0.691E-07
CGA:  13    -0.931463999726E+02   -0.14753E-05   -0.14739E-05  8064   0.164E-04 0.303E-07
CGA:  14    -0.931464007782E+02   -0.80556E-06   -0.80838E-06  8064   0.108E-04 0.120E-06
   8 F= -.93146401E+02 E0= -.93148134E+02  d E =-.950092E-04  mag=     2.7954
       N       E                     dE             d eps       ncg     rms          ort
SDA:   1    -0.931416401435E+02    0.47598E-02    0.00000E+00  8064   0.225E-01 0.000E+00
CGA:   2    -0.931431942730E+02   -0.15541E-02   -0.15541E-02  8064   0.282E-01 0.139E-05
CGA:   3    -0.931444033355E+02   -0.12091E-02   -0.12090E-02  8064   0.675E-02 0.904E-06
CGA:   4    -0.931451785491E+02   -0.77521E-03   -0.77507E-03  8064   0.193E-01 0.104E-05
CGA:   5    -0.931459849765E+02   -0.80643E-03   -0.80652E-03  8064   0.172E-02 0.199E-05
CGA:   6    -0.931461698625E+02   -0.18489E-03   -0.18489E-03  8064   0.159E-02-0.121E-06
CGA:   7    -0.931462685962E+02   -0.98734E-04   -0.98728E-04  8064   0.116E-02-0.111E-05
CGA:   8    -0.931463104759E+02   -0.41880E-04   -0.41865E-04  8064   0.262E-03-0.364E-06
CGA:   9    -0.931463358346E+02   -0.25359E-04   -0.25371E-04  8064   0.486E-03-0.455E-06
CGA:  10    -0.931463547333E+02   -0.18899E-04   -0.18884E-04  8064   0.125E-03-0.504E-06
CGA:  11    -0.931463643323E+02   -0.95990E-05   -0.96005E-05  8064   0.553E-04-0.122E-06
CGA:  12    -0.931463712260E+02   -0.68937E-05   -0.68844E-05  8064   0.108E-03 0.151E-06
CGA:  13    -0.931463750133E+02   -0.37873E-05   -0.37938E-05  8064   0.184E-04 0.190E-06
CGA:  14    -0.931463768021E+02   -0.17888E-05   -0.17912E-05  8064   0.373E-04-0.613E-07
CGA:  15    -0.931463783316E+02   -0.15295E-05   -0.15266E-05  8064   0.925E-05-0.773E-07
CGA:  16    -0.931463790753E+02   -0.74371E-06   -0.74212E-06  8064   0.537E-05 0.124E-06
   9 F= -.93146379E+02 E0= -.93148098E+02  d E =-.733063E-04  mag=     2.7913
       N       E                     dE             d eps       ncg     rms          ort
SDA:   1    -0.931446853471E+02    0.16930E-02    0.00000E+00  8064   0.186E-01 0.000E+00
CGA:   2    -0.931451745011E+02   -0.48915E-03   -0.48924E-03  8064   0.582E-02-0.593E-05
CGA:   3    -0.931457051554E+02   -0.53065E-03   -0.53066E-03  8064   0.424E-02-0.837E-06
CGA:   4    -0.931458732669E+02   -0.16811E-03   -0.16810E-03  8064   0.284E-02-0.665E-06
CGA:   5    -0.931461436108E+02   -0.27034E-03   -0.27041E-03  8064   0.215E-02-0.242E-05
CGA:   6    -0.931463081631E+02   -0.16455E-03   -0.16455E-03  8064   0.567E-03-0.135E-06
CGA:   7    -0.931463304727E+02   -0.22310E-04   -0.22306E-04  8064   0.429E-03-0.178E-06
CGA:   8    -0.931463673572E+02   -0.36884E-04   -0.36879E-04  8064   0.250E-03 0.171E-06
CGA:   9    -0.931463775952E+02   -0.10238E-04   -0.10246E-04  8064   0.135E-03 0.295E-06
CGA:  10    -0.931463845420E+02   -0.69468E-05   -0.69509E-05  8064   0.470E-04 0.258E-06
CGA:  11    -0.931463911514E+02   -0.66094E-05   -0.65820E-05  8064   0.429E-04 0.369E-06
CGA:  12    -0.931463924696E+02   -0.13183E-05   -0.13191E-05  8064   0.162E-04 0.157E-07
CGA:  13    -0.931463944135E+02   -0.19438E-05   -0.19454E-05  8064   0.233E-04-0.433E-07
CGA:  14    -0.931463953183E+02   -0.90480E-06   -0.90355E-06  8064   0.939E-05-0.201E-07
  10 F= -.93146395E+02 E0= -.93148120E+02  d E =-.895493E-04  mag=     2.7934
       N       E                     dE             d eps       ncg     rms          ort
SDA:   1    -0.931459374607E+02    0.45695E-03    0.00000E+00  8064   0.515E-02 0.000E+00
CGA:   2    -0.931460724480E+02   -0.13499E-03   -0.13500E-03  8064   0.170E-02-0.210E-05
CGA:   3    -0.931462050793E+02   -0.13263E-03   -0.13264E-03  8064   0.105E-02-0.985E-06
CGA:   4    -0.931462656389E+02   -0.60560E-04   -0.60557E-04  8064   0.930E-03-0.232E-06
CGA:   5    -0.931463171918E+02   -0.51553E-04   -0.51543E-04  8064   0.583E-03-0.825E-06
CGA:   6    -0.931463770837E+02   -0.59892E-04   -0.59936E-04  8064   0.136E-03-0.125E-05
CGA:   7    -0.931463822354E+02   -0.51517E-05   -0.51531E-05  8064   0.116E-03 0.245E-07
CGA:   8    -0.931463937402E+02   -0.11505E-04   -0.11486E-04  8064   0.466E-04 0.554E-06
CGA:   9    -0.931463960380E+02   -0.22978E-05   -0.23010E-05  8064   0.313E-04 0.147E-06
CGA:  10    -0.931463977177E+02   -0.16797E-05   -0.16809E-05  8064   0.190E-04 0.580E-07
CGA:  11    -0.931463994291E+02   -0.17114E-05   -0.17060E-05  8064   0.988E-05 0.259E-06
CGA:  12    -0.931463997654E+02   -0.33625E-06   -0.33711E-06  8064   0.580E-05 0.199E-07
  11 F= -.93146400E+02 E0= -.93148129E+02  d E =-.939964E-04  mag=     2.7946
       N       E                     dE             d eps       ncg     rms          ort
SDA:   1    -0.931462576015E+02    0.14183E-03    0.00000E+00  8064   0.508E-02 0.000E+00
CGA:   2    -0.931463591959E+02   -0.10159E-03   -0.10161E-03  8064   0.334E-03-0.221E-05
CGA:   3    -0.931463752952E+02   -0.16099E-04   -0.16092E-04  8064   0.126E-03-0.485E-06
CGA:   4    -0.931463818533E+02   -0.65581E-05   -0.65536E-05  8064   0.125E-03-0.280E-06
CGA:   5    -0.931463919686E+02   -0.10115E-04   -0.10131E-04  8064   0.467E-04-0.903E-06
CGA:   6    -0.931463975400E+02   -0.55713E-05   -0.55916E-05  8064   0.306E-04-0.402E-06
CGA:   7    -0.931463995556E+02   -0.20156E-05   -0.20164E-05  8064   0.243E-04 0.983E-07
CGA:   8    -0.931464002971E+02   -0.74151E-06   -0.74504E-06  8064   0.602E-05 0.111E-06
  12 F= -.93146400E+02 E0= -.93148131E+02  d E =-.945281E-04  mag=     2.7949
       N       E                     dE             d eps       ncg     rms          ort
SDA:   1    -0.931460145986E+02    0.38496E-03    0.00000E+00  8064   0.193E-01 0.000E+00
CGA:   2    -0.931463896254E+02   -0.37503E-03   -0.37478E-03  8064   0.130E-03 0.131E-04
CGA:   3    -0.931463929617E+02   -0.33363E-05   -0.33395E-05  8064   0.397E-04 0.584E-07
CGA:   4    -0.931463966024E+02   -0.36407E-05   -0.36390E-05  8064   0.301E-04 0.584E-07
CGA:   5    -0.931463993484E+02   -0.27460E-05   -0.27418E-05  8064   0.111E-04 0.152E-06
CGA:   6    -0.931464005189E+02   -0.11705E-05   -0.11662E-05  8064   0.186E-04 0.961E-07
CGA:   7    -0.931464010697E+02   -0.55082E-06   -0.55305E-06  8064   0.184E-05 0.380E-07
  13 F= -.93146401E+02 E0= -.93148133E+02  d E =-.953007E-04  mag=     2.7949
       N       E                     dE             d eps       ncg     rms          ort
SDA:   1    -0.931462615985E+02    0.13892E-03    0.00000E+00  8064   0.712E-02 0.000E+00
CGA:   2    -0.931463980439E+02   -0.13645E-03   -0.13641E-03  8064   0.708E-04 0.337E-05
CGA:   3    -0.931463999190E+02   -0.18751E-05   -0.18797E-05  8064   0.155E-04 0.101E-06
CGA:   4    -0.931464005878E+02   -0.66883E-06   -0.67163E-06  8064   0.414E-05 0.891E-07
  14 F= -.93146401E+02 E0= -.93148132E+02  d E =-.948188E-04  mag=     2.7951
       N       E                     dE             d eps       ncg     rms          ort
SDA:   1    -0.931463859826E+02    0.13936E-04    0.00000E+00  8064   0.434E-03 0.000E+00
CGA:   2    -0.931463982605E+02   -0.12278E-04   -0.12273E-04  8064   0.924E-04-0.255E-06
CGA:   3    -0.931464008215E+02   -0.25610E-05   -0.25562E-05  8064   0.380E-05-0.122E-06
CGA:   4    -0.931464011838E+02   -0.36227E-06   -0.36588E-06  8064   0.275E-05-0.899E-07
  15 F= -.93146401E+02 E0= -.93148132E+02  d E =-.954148E-04  mag=     2.7953
