       N       E                     dE             d eps       ncg     rms          rms(c)
DAV:   1     0.177730140652E+04    0.17773E+04   -0.85143E+04 43008   0.175E+03
DAV:   2     0.730635843451E+01   -0.17700E+04   -0.16779E+04 43040   0.476E+02
DAV:   3    -0.101806373345E+03   -0.10911E+03   -0.10718E+03 50496   0.126E+02
DAV:   4    -0.103497025638E+03   -0.16907E+01   -0.16902E+01 46016   0.157E+01
DAV:   5    -0.103532875465E+03   -0.35850E-01   -0.35849E-01 52736   0.221E+00    0.348E+01
DAV:   6    -0.103190182937E+03    0.34269E+00   -0.70493E+01 48384   0.540E+01    0.430E+01
DAV:   7    -0.943723307752E+02    0.88179E+01   -0.93374E+01 49216   0.377E+01    0.168E+01
DAV:   8    -0.933252110488E+02    0.10471E+01   -0.29453E+00 49312   0.101E+01    0.980E+00
DAV:   9    -0.947805905009E+02   -0.14554E+01   -0.11283E+01 52384   0.163E+01    0.203E+01
DAV:  10    -0.928540809816E+02    0.19265E+01   -0.57276E+00 52384   0.112E+01    0.475E+00
DAV:  11    -0.930799470896E+02   -0.22587E+00   -0.14582E+00 50208   0.833E+00    0.876E+00
DAV:  12    -0.928069934906E+02    0.27295E+00   -0.94193E-01 50528   0.612E+00    0.239E+00
DAV:  13    -0.928478232318E+02   -0.40830E-01   -0.19818E-01 51104   0.415E+00    0.382E+00
DAV:  14    -0.927988421494E+02    0.48981E-01   -0.12972E-01 49632   0.282E+00    0.604E-01
DAV:  15    -0.928001972208E+02   -0.13551E-02   -0.79182E-03 50880   0.627E-01    0.350E-01
DAV:  16    -0.927999145858E+02    0.28263E-03   -0.16718E-03 50848   0.292E-01    0.197E-01
DAV:  17    -0.927998285287E+02    0.86057E-04   -0.73318E-04 50912   0.156E-01    0.121E-01
DAV:  18    -0.927998238600E+02    0.46687E-05   -0.45562E-04 51680   0.113E-01    0.870E-02
DAV:  19    -0.927998516017E+02   -0.27742E-04   -0.12882E-04 50976   0.543E-02    0.332E-02
DAV:  20    -0.927998658195E+02   -0.14218E-04   -0.12585E-04 52288   0.318E-02    0.546E-02
DAV:  21    -0.927998688971E+02   -0.30775E-05   -0.49376E-05 46016   0.272E-02    0.332E-02
DAV:  22    -0.927998681403E+02    0.75671E-06   -0.75588E-07 30656   0.567E-03
   1 F= -.92799868E+02 E0= -.92799868E+02  d E =0.000000E+00  mag=    26.5328
