       N       E                     dE             d eps       ncg     rms          ort
DAV:   1     0.177730089587E+04    0.17773E+04   -0.92016E+04 10752   0.193E+03
DAV:   2     0.730778143546E+01   -0.17700E+04   -0.16779E+04 10752   0.476E+02
DAV:   3    -0.101800576968E+03   -0.10911E+03   -0.10717E+03 10752   0.126E+02
DAV:   4    -0.103491191464E+03   -0.16906E+01   -0.16902E+01 10752   0.157E+01
DAV:   5    -0.103527040798E+03   -0.35849E-01   -0.35848E-01 10752   0.221E+00
SDA:   6    -0.523611855441E+02    0.51166E+02   -0.35848E-01 10752   0.273E+03 0.000E+00
CGA:   7    -0.862807242673E+02   -0.33920E+02   -0.32859E+02 10752   0.178E+02 0.399E+01
CGA:   8    -0.907245916148E+02   -0.44439E+01   -0.44388E+01 10752   0.120E+02 0.686E-01
CGA:   9    -0.910565942930E+02   -0.33200E+00   -0.33719E+00 10752   0.536E+01-0.190E+00
CGA:  10    -0.922813969373E+02   -0.12248E+01   -0.12194E+01 10752   0.211E+01 0.878E-01
CGA:  11    -0.924746453306E+02   -0.19325E+00   -0.19330E+00 10752   0.452E+01-0.147E-02
CGA:  12    -0.926709663615E+02   -0.19632E+00   -0.20124E+00 10752   0.431E+00-0.102E+00
CGA:  13    -0.927269406613E+02   -0.55974E-01   -0.55910E-01 10752   0.433E+00-0.236E-03
CGA:  14    -0.927525336566E+02   -0.25593E-01   -0.25925E-01 10752   0.471E+00-0.424E-02
CGA:  15    -0.927733597702E+02   -0.20826E-01   -0.20961E-01 10752   0.719E-01-0.279E-02
CGA:  16    -0.927860907973E+02   -0.12731E-01   -0.12729E-01 10752   0.111E+00 0.973E-04
CGA:  17    -0.927916585649E+02   -0.55678E-02   -0.55926E-02 10752   0.958E-01-0.445E-03
CGA:  18    -0.927967313083E+02   -0.50727E-02   -0.50956E-02 10752   0.216E-01-0.329E-03
CGA:  19    -0.928039030978E+02   -0.71718E-02   -0.71550E-02 10752   0.612E-01 0.830E-04
CGA:  20    -0.928055376177E+02   -0.16345E-02   -0.16634E-02 10752   0.983E-02-0.862E-03
CGA:  21    -0.928080525720E+02   -0.25150E-02   -0.25149E-02 10752   0.166E-01-0.312E-05
CGA:  22    -0.928085730647E+02   -0.52049E-03   -0.52113E-03 10752   0.507E-02-0.878E-04
CGA:  23    -0.928089874488E+02   -0.41438E-03   -0.41178E-03 10752   0.256E-02-0.343E-04
CGA:  24    -0.928092163727E+02   -0.22892E-03   -0.22671E-03 10752   0.316E-02-0.330E-04
CGA:  25    -0.928093299926E+02   -0.11362E-03   -0.11154E-03 10752   0.576E-03-0.170E-04
CGA:  26    -0.928094195213E+02   -0.89529E-04   -0.89674E-04 10752   0.649E-03-0.972E-05
CGA:  27    -0.928094429672E+02   -0.23446E-04   -0.23232E-04 10752   0.285E-03-0.694E-06
CGA:  28    -0.928094617531E+02   -0.18786E-04   -0.18713E-04 10752   0.821E-04-0.358E-06
CGA:  29    -0.928094760972E+02   -0.14344E-04   -0.14355E-04 10752   0.292E-03 0.780E-07
CGA:  30    -0.928094872088E+02   -0.11112E-04   -0.11102E-04 10752   0.251E-04 0.156E-06
CGA:  31    -0.928094915091E+02   -0.43003E-05   -0.42512E-05 10752   0.619E-04 0.160E-05
CGA:  32    -0.928094942916E+02   -0.27825E-05   -0.28624E-05 10752   0.295E-04 0.125E-05
CGA:  33    -0.928094963993E+02   -0.21077E-05   -0.21405E-05 10752   0.115E-04 0.806E-06
CGA:  34    -0.928094973087E+02   -0.90933E-06   -0.90589E-06 10752   0.207E-04 0.142E-06
CGA:  35    -0.928094987959E+02   -0.14873E-05   -0.14735E-05 10752   0.349E-05-0.113E-06
CGA:  36    -0.928094990409E+02   -0.24493E-06   -0.24269E-06 10752   0.597E-05 0.746E-07
   1 F= -.92809499E+02 E0= -.92804103E+02  d E =-.928095E+02  mag=    26.7457
