       N       E                     dE             d eps       ncg     rms          ort
DAV:   1     0.179439997408E+04    0.17944E+04   -0.92169E+04 10752   0.193E+03
DAV:   2     0.121899301265E+02   -0.17822E+04   -0.16814E+04 10752   0.479E+02
DAV:   3    -0.970097294400E+02   -0.10920E+03   -0.10752E+03 10752   0.127E+02
DAV:   4    -0.986860821175E+02   -0.16764E+01   -0.16760E+01 10752   0.156E+01
DAV:   5    -0.987218088074E+02   -0.35727E-01   -0.35726E-01 10752   0.220E+00
SDA:   6    -0.512018474768E+02    0.47520E+02   -0.35726E-01 10752   0.249E+03 0.000E+00
CGA:   7    -0.851229112323E+02   -0.33921E+02   -0.32693E+02 10752   0.188E+02 0.948E+00
CGA:   8    -0.900288671625E+02   -0.49060E+01   -0.49063E+01 10752   0.575E+01-0.219E-01
CGA:   9    -0.917581723149E+02   -0.17293E+01   -0.17409E+01 10752   0.341E+01-0.810E-01
CGA:  10    -0.920546988364E+02   -0.29653E+00   -0.28996E+00 10752   0.703E+01 0.505E-01
CGA:  11    -0.924680704319E+02   -0.41337E+00   -0.37848E+00 10752   0.667E+00 0.605E+00
CGA:  12    -0.926100777116E+02   -0.14201E+00   -0.14204E+00 10752   0.125E+01-0.409E-02
CGA:  13    -0.926539223245E+02   -0.43845E-01   -0.43577E-01 10752   0.610E+00 0.583E-02
CGA:  14    -0.927092516543E+02   -0.55329E-01   -0.55216E-01 10752   0.239E+00 0.526E-03
CGA:  15    -0.927350919923E+02   -0.25840E-01   -0.25889E-01 10752   0.713E+00-0.948E-04
CGA:  16    -0.927718376402E+02   -0.36746E-01   -0.37260E-01 10752   0.800E-01-0.834E-02
CGA:  17    -0.927833447857E+02   -0.11507E-01   -0.11508E-01 10752   0.192E+00 0.138E-03
CGA:  18    -0.927915762279E+02   -0.82314E-02   -0.83210E-02 10752   0.114E+00-0.127E-02
CGA:  19    -0.928012429545E+02   -0.96667E-02   -0.96852E-02 10752   0.305E-01 0.179E-03
CGA:  20    -0.928046778768E+02   -0.34349E-02   -0.34345E-02 10752   0.630E-01 0.221E-04
CGA:  21    -0.928068762669E+02   -0.21984E-02   -0.21955E-02 10752   0.724E-02 0.546E-04
CGA:  22    -0.928087709869E+02   -0.18947E-02   -0.19089E-02 10752   0.125E-01-0.118E-03
CGA:  23    -0.928090616086E+02   -0.29062E-03   -0.28680E-03 10752   0.126E-02 0.466E-04
CGA:  24    -0.928092211521E+02   -0.15954E-03   -0.15884E-03 10752   0.174E-02-0.225E-04
CGA:  25    -0.928093175977E+02   -0.96446E-04   -0.94691E-04 10752   0.219E-02-0.102E-04
CGA:  26    -0.928094570868E+02   -0.13949E-03   -0.13714E-03 10752   0.273E-03-0.176E-04
CGA:  27    -0.928094752780E+02   -0.18191E-04   -0.18210E-04 10752   0.472E-03 0.376E-05
CGA:  28    -0.928095048706E+02   -0.29593E-04   -0.29867E-04 10752   0.280E-03 0.921E-05
CGA:  29    -0.928095381150E+02   -0.33244E-04   -0.33378E-04 10752   0.172E-03 0.136E-04
CGA:  30    -0.928095432389E+02   -0.51239E-05   -0.53651E-05 10752   0.734E-04 0.609E-05
CGA:  31    -0.928095522143E+02   -0.89755E-05   -0.90168E-05 10752   0.151E-04 0.822E-05
CGA:  32    -0.928095529413E+02   -0.72698E-06   -0.73757E-06 10752   0.144E-04 0.220E-05
   1 F= -.92809553E+02 E0= -.92803881E+02  d E =-.928096E+02  mag=    26.7461
       N       E                     dE             d eps       ncg     rms          ort
SDA:   1    -0.928086918543E+02    0.86036E-03    0.00000E+00 10752   0.742E-02 0.000E+00
CGA:   2    -0.928088718079E+02   -0.17995E-03   -0.18008E-03 10752   0.196E-02-0.340E-05
CGA:   3    -0.928092692186E+02   -0.39741E-03   -0.39705E-03 10752   0.101E-02 0.408E-05
CGA:   4    -0.928093903961E+02   -0.12118E-03   -0.12118E-03 10752   0.703E-03 0.720E-06
CGA:   5    -0.928094393896E+02   -0.48993E-04   -0.48986E-04 10752   0.895E-03-0.144E-06
CGA:   6    -0.928094747754E+02   -0.35386E-04   -0.35376E-04 10752   0.832E-04-0.519E-06
CGA:   7    -0.928094855314E+02   -0.10756E-04   -0.10765E-04 10752   0.670E-04-0.521E-06
CGA:   8    -0.928094930214E+02   -0.74899E-05   -0.74902E-05 10752   0.324E-04-0.359E-06
CGA:   9    -0.928094940297E+02   -0.10084E-05   -0.10102E-05 10752   0.160E-04 0.178E-07
CGA:  10    -0.928094966634E+02   -0.26337E-05   -0.26166E-05 10752   0.389E-05 0.325E-06
CGA:  11    -0.928094974328E+02   -0.76937E-06   -0.76921E-06 10752   0.506E-05-0.456E-08
   2 F= -.92809497E+02 E0= -.92804099E+02  d E =0.555085E-04  mag=    26.7469
       N       E                     dE             d eps       ncg     rms          ort
SDA:   1    -0.928093378539E+02    0.15881E-03    0.00000E+00 10752   0.636E-03 0.000E+00
CGA:   2    -0.928094024396E+02   -0.64586E-04   -0.64585E-04 10752   0.406E-03 0.532E-07
CGA:   3    -0.928094392741E+02   -0.36835E-04   -0.36842E-04 10752   0.780E-03 0.248E-06
CGA:   4    -0.928094722783E+02   -0.33004E-04   -0.33026E-04 10752   0.114E-03 0.292E-06
CGA:   5    -0.928094894934E+02   -0.17215E-04   -0.17216E-04 10752   0.724E-04-0.142E-07
CGA:   6    -0.928094954196E+02   -0.59262E-05   -0.59224E-05 10752   0.105E-04-0.127E-06
CGA:   7    -0.928094966330E+02   -0.12134E-05   -0.12134E-05 10752   0.303E-04-0.699E-07
CGA:   8    -0.928094979495E+02   -0.13165E-05   -0.13123E-05 10752   0.253E-05-0.699E-07
CGA:   9    -0.928094984689E+02   -0.51938E-06   -0.51275E-06 10752   0.182E-05 0.571E-07
   3 F= -.92809498E+02 E0= -.92804101E+02  d E =0.544724E-04  mag=    26.7468
