 vasp.6.4.3 19Mar24 (build Mar 26 2024 14:05:37) complex                        
  
 executed on             LinuxIFC date 2024.12.16  06:26:51
 running  128 mpi-ranks, on    1 nodes
 distrk:  each k-point on   32 cores,    4 groups
 distr:  one band on NCORE=   1 cores,   32 groups


--------------------------------------------------------------------------------------------------------


 INCAR:
   ALGO = All
   EDIFF = 1e-06
   EDIFFG = -0.01
   ENCUT = 520
   GGA = PE
   IBRION = 2
   ISIF = 4
   ISMEAR = 1
   ISPIN = 2
   KPAR = 4
   LCHARG = True
   LORBIT = 11
   LREAL = False
   LWAVE = False
   MAGMOM = 9*5.0 3*0.0
   NELM = 200
   NSW = 100
   PREC = Accurate
   SIGMA = 0.2

 POTCAR:    PAW_PBE Fe_pv 02Aug2007               
 POTCAR:    PAW_PBE Pt 04Feb2005                  
 -----------------------------------------------------------------------------
|                                                                             |
|           W    W    AA    RRRRR   N    N  II  N    N   GGGG   !!!           |
|           W    W   A  A   R    R  NN   N  II  NN   N  G    G  !!!           |
|           W    W  A    A  R    R  N N  N  II  N N  N  G       !!!           |
|           W WW W  AAAAAA  RRRRR   N  N N  II  N  N N  G  GGG   !            |
|           WW  WW  A    A  R   R   N   NN  II  N   NN  G    G                |
|           W    W  A    A  R    R  N    N  II  N    N   GGGG   !!!           |
|                                                                             |
|     For optimal performance we recommend to set                             |
|       NCORE = 2 up to number-of-cores-per-socket                            |
|     NCORE specifies how many cores store one orbital (NPAR=cpu/NCORE).      |
|     This setting can greatly improve the performance of VASP for DFT.       |
|     The default, NCORE=1 might be grossly inefficient on modern             |
|     multi-core architectures or massively parallel machines. Do your        |
|     own testing! More info at https://www.vasp.at/wiki/index.php/NCORE      |
|     Unfortunately you need to use the default for GW and RPA                |
|     calculations (for HF NCORE is supported but not extensively tested      |
|     yet).                                                                   |
|                                                                             |
 -----------------------------------------------------------------------------

 POTCAR:    PAW_PBE Fe_pv 02Aug2007               
   SHA256 =  5d22e414b1f82158bf2c7ecb8b97b28fd0923e48cadc1c3bf74d524558f5dd32 Fe_pv/POTCAR          
   COPYR  = (c) Copyright 02Aug2007 Georg Kresse                                                    
   COPYR  = This file is part of the software VASP. Any use, copying, and all other rights are regul
   COPYR  = If you do not have a valid VASP license, you may not use, copy or distribute this file. 
   VRHFIN =Fe:  3pd7s1                                                                              
   LEXCH  = PE                                                                                      
   EATOM  =  2457.4239 eV,  180.6156 Ry                                                             
                                                                                                    
   TITEL  = PAW_PBE Fe_pv 02Aug2007                                                                 
   LULTRA =        F    use ultrasoft PP ?                                                          
   IUNSCR =        1    unscreen: 0-lin 1-nonlin 2-no                                               
   RPACOR =    1.750    partial core radius                                                         
   POMASS =   55.847; ZVAL   =   14.000    mass and valenz                                          
   RCORE  =    2.200    outmost cutoff radius                                                       
   RWIGS  =    2.200; RWIGS  =    1.164    wigner-seitz radius (au A)                               
   ENMAX  =  293.238; ENMIN  =  219.928 eV                                                          
   ICORE  =        3    local potential                                                             
   LCOR   =        T    correct aug charges                                                         
   LPAW   =        T    paw PP                                                                      
   EAUG   =  578.342                                                                                
   DEXC   =    0.000                                                                                
   RMAX   =    2.249    core radius for proj-oper                                                   
   RAUG   =    1.300    factor for augmentation sphere                                              
   RDEP   =    2.296    radius for radial grids                                                     
   RDEPT  =    1.766    core radius for aug-charge                                                  
                                                                                                    
   Atomic configuration                                                                             
    8 entries                                                                                       
     n  l   j            E        occ.                                                              
     1  0  0.50     -6993.8440   2.0000                                                             
     2  0  0.50      -814.6047   2.0000                                                             
     2  1  1.50      -693.3689   6.0000                                                             
     3  0  0.50       -89.4732   2.0000                                                             
     3  1  1.50       -55.6373   6.0000                                                             
     3  2  2.50        -3.8151   7.0000                                                             
     4  0  0.50        -4.2551   1.0000                                                             
     4  3  2.50        -1.3606   0.0000                                                             
   Description                                                                                      
     l       E           TYP  RCUT    TYP  RCUT                                                     
     1    -55.6372668     23  2.000                                                                 
     1     -5.4423304     23  2.000                                                                 
     2     -3.8151096     23  2.200                                                                 
     2     -5.1756922     23  2.200                                                                 
     0     -4.2550951     23  2.200                                                                 
     0     27.2116520     23  2.200                                                                 
     3     -1.3605826     23  2.200                                                                 
  local pseudopotential read in
  partial core-charges read in
  partial kinetic energy density read in
  atomic valenz-charges read in
  non local Contribution for L=           1  read in
    real space projection operators read in
  non local Contribution for L=           1  read in
    real space projection operators read in
  non local Contribution for L=           2  read in
    real space projection operators read in
  non local Contribution for L=           2  read in
    real space projection operators read in
  non local Contribution for L=           0  read in
    real space projection operators read in
  non local Contribution for L=           0  read in
    real space projection operators read in
    PAW grid and wavefunctions read in
 
   number of l-projection  operators is LMAX  =           6
   number of lm-projection operators is LMMAX =          18
 
 POTCAR:    PAW_PBE Pt 04Feb2005                  
   SHA256 =  3ed90460adef76debcff1cfb73ee1349b515b1a3db03439735b44de3a8db7dc8 Pt/POTCAR             
   COPYR  = (c) Copyright 04Feb2005 Georg Kresse                                                    
   COPYR  = This file is part of the software VASP. Any use, copying, and all other rights are regul
   COPYR  = If you do not have a valid VASP license, you may not use, copy or distribute this file. 
   VRHFIN =Pt: s1d9                                                                                 
   LEXCH  = PE                                                                                      
   EATOM  =   729.1176 eV,   53.5886 Ry                                                             
                                                                                                    
   TITEL  = PAW_PBE Pt 04Feb2005                                                                    
   LULTRA =        F    use ultrasoft PP ?                                                          
   IUNSCR =        1    unscreen: 0-lin 1-nonlin 2-no                                               
   RPACOR =    2.330    partial core radius                                                         
   POMASS =  195.080; ZVAL   =   10.000    mass and valenz                                          
   RCORE  =    2.600    outmost cutoff radius                                                       
   RWIGS  =    2.750; RWIGS  =    1.455    wigner-seitz radius (au A)                               
   ENMAX  =  230.283; ENMIN  =  172.712 eV                                                          
   ICORE  =        3    local potential                                                             
   LCOR   =        T    correct aug charges                                                         
   LPAW   =        T    paw PP                                                                      
   EAUG   =  358.966                                                                                
   DEXC   =    0.000                                                                                
   RMAX   =    2.658    core radius for proj-oper                                                   
   RAUG   =    1.300    factor for augmentation sphere                                              
   RDEP   =    2.761    radius for radial grids                                                     
   RDEPT  =    2.203    core radius for aug-charge                                                  
                                                                                                    
   Atomic configuration                                                                             
   16 entries                                                                                       
     n  l   j            E        occ.                                                              
     1  0  0.50    -78401.1885   2.0000                                                             
     2  0  0.50    -13770.7750   2.0000                                                             
     2  1  1.50    -11931.0468   6.0000                                                             
     3  0  0.50     -3234.7234   2.0000                                                             
     3  1  1.50     -2699.2216   6.0000                                                             
     3  2  2.50     -2119.5714  10.0000                                                             
     4  0  0.50      -695.1528   2.0000                                                             
     4  1  1.50      -519.6034   6.0000                                                             
     4  2  2.50      -306.6786  10.0000                                                             
     4  3  3.50       -70.1041  14.0000                                                             
     5  0  0.50      -101.7747   2.0000                                                             
     5  1  1.50       -55.9873   6.0000                                                             
     5  2  2.50        -6.1423   9.0000                                                             
     6  0  0.50        -5.6573   1.0000                                                             
     6  1  1.50        -6.8029   0.0000                                                             
     5  3  2.50        -1.3606   0.0000                                                             
   Description                                                                                      
     l       E           TYP  RCUT    TYP  RCUT                                                     
     2     -6.1423404     23  2.500                                                                 
     2     -7.5029230     23  2.500                                                                 
     0     -5.6573207     23  2.500                                                                 
     0      0.7416693     23  2.500                                                                 
     1     -2.7211652     23  2.600                                                                 
     1     20.4087390     23  2.600                                                                 
     3     -1.3605826     23  2.500                                                                 
  local pseudopotential read in
  partial core-charges read in
  partial kinetic energy density read in
  atomic valenz-charges read in
  non local Contribution for L=           2  read in
    real space projection operators read in
  non local Contribution for L=           2  read in
    real space projection operators read in
  non local Contribution for L=           0  read in
    real space projection operators read in
  non local Contribution for L=           0  read in
    real space projection operators read in
  non local Contribution for L=           1  read in
    real space projection operators read in
  non local Contribution for L=           1  read in
    real space projection operators read in
    PAW grid and wavefunctions read in
 
   number of l-projection  operators is LMAX  =           6
   number of lm-projection operators is LMMAX =          18
 
  PAW_PBE Fe_pv 02Aug2007               :
 energy of atom  1       EATOM=-2457.4239
 kinetic energy error for atom=    0.0062 (will be added to EATOM!!)
  PAW_PBE Pt 04Feb2005                  :
 energy of atom  2       EATOM= -729.1176
 kinetic energy error for atom=    0.0032 (will be added to EATOM!!)
 
 
 POSCAR: Fe9 Pt3
  positions in direct lattice
  No initial velocities read in


 exchange-correlation table for PE
   RHO(1)=    0.500       N(1)  =     2000
   RHO(2)=  100.500       N(2)  =     4000
 


--------------------------------------------------------------------------------------------------------


 ion  position               nearest neighbor table
   1  0.000  0.500  0.167-   5 2.73  11 2.73  11 2.73   5 2.73   7 2.73   7 2.73   7 2.73   7 2.73
                             4 2.73  10 2.73  10 2.73   4 2.73
   2  0.000  0.500  0.500-   8 2.73   8 2.73   8 2.73   8 2.73  12 2.73   6 2.73  11 2.73  12 2.73
                             5 2.73   6 2.73   5 2.73  11 2.73
   3  0.000  0.500  0.833-   6 2.73  12 2.73  12 2.73   6 2.73   9 2.73   9 2.73   9 2.73   9 2.73
                             4 2.73  10 2.73  10 2.73   4 2.73
   4  0.500  0.500  0.000-  10 2.73  10 2.73  10 2.73  10 2.73   1 2.73   7 2.73   9 2.73   3 2.73
                             1 2.73   3 2.73   7 2.73   9 2.73
   5  0.500  0.500  0.333-   1 2.73   7 2.73   7 2.73   1 2.73  11 2.73  11 2.73  11 2.73  11 2.73
                             8 2.73   2 2.73   8 2.73   2 2.73
   6  0.500  0.500  0.667-   3 2.73   9 2.73   9 2.73   3 2.73  12 2.73  12 2.73  12 2.73  12 2.73
                             2 2.73   8 2.73   2 2.73   8 2.73
   7  0.500  0.000  0.167-   5 2.73  11 2.73   5 2.73  11 2.73   1 2.73   1 2.73   1 2.73   1 2.73
                            10 2.73  10 2.73   4 2.73   4 2.73
   8  0.500  0.000  0.500-   2 2.73   2 2.73   2 2.73   2 2.73  12 2.73   5 2.73   5 2.73   6 2.73
                             6 2.73  11 2.73  12 2.73  11 2.73
   9  0.500  0.000  0.833-   6 2.73  12 2.73   6 2.73  12 2.73   3 2.73   3 2.73   3 2.73   3 2.73
                            10 2.73  10 2.73   4 2.73   4 2.73
  10  0.000  0.000  0.000-   4 2.73   4 2.73   4 2.73   4 2.73   9 2.73   1 2.73   3 2.73   3 2.73
                             1 2.73   7 2.73   9 2.73   7 2.73
  11  0.000  0.000  0.333-   1 2.73   7 2.73   1 2.73   7 2.73   5 2.73   5 2.73   5 2.73   5 2.73
                             2 2.73   2 2.73   8 2.73   8 2.73
  12  0.000  0.000  0.667-   3 2.73   9 2.73   3 2.73   9 2.73   6 2.73   6 2.73   6 2.73   6 2.73
                             2 2.73   8 2.73   8 2.73   2 2.73
 
  LATTYP: Found a simple tetragonal cell.
 ALAT       =     3.8559896541
 C/A-ratio  =     2.9999973212
  
  Lattice vectors:
  
 A1 = (   3.8559896541,   0.0000000000,   0.0000000000)
 A2 = (   0.0000000000,   3.8559896541,   0.0000000000)
 A3 = (   0.0000000000,   0.0000000000,  11.5679586331)


Analysis of symmetry for initial positions (statically):
=====================================================================
 Subroutine PRICEL returns:
 Original cell was already a primitive cell.
 

 Routine SETGRP: Setting up the symmetry group for a 
 simple tetragonal supercell.


 Subroutine GETGRP returns: Found 16 space group operations
 (whereof 16 operations were pure point group operations)
 out of a pool of 16 trial point group operations.


The static configuration has the point symmetry D_4h.


Analysis of symmetry for dynamics (positions and initial velocities):
=====================================================================
 Subroutine PRICEL returns:
 Original cell was already a primitive cell.
 

 Routine SETGRP: Setting up the symmetry group for a 
 simple tetragonal supercell.


 Subroutine GETGRP returns: Found 16 space group operations
 (whereof 16 operations were pure point group operations)
 out of a pool of 16 trial point group operations.


The dynamic configuration has the point symmetry D_4h.


Analysis of structural, dynamic, and magnetic symmetry:
=====================================================================
 Subroutine PRICEL returns:
 Original cell was already a primitive cell.
 

 Routine SETGRP: Setting up the symmetry group for a 
 simple tetragonal supercell.


 Subroutine GETGRP returns: Found 16 space group operations
 (whereof 16 operations were pure point group operations)
 out of a pool of 16 trial point group operations.


The overall configuration has the point symmetry D_4h.


 Subroutine INISYM returns: Found 16 space group operations
 (whereof 16 operations are pure point group operations),
 and found     1 'primitive' translations


----------------------------------------------------------------------------------------

                                     Primitive cell                                     

  volume of cell :     172.0000

  direct lattice vectors                    reciprocal lattice vectors
     3.855989654  0.000000000  0.000000000     0.259336795  0.000000000  0.000000000
     0.000000000  3.855989654  0.000000000     0.000000000  0.259336795  0.000000000
     0.000000000  0.000000000 11.567958633     0.000000000  0.000000000  0.086445676

  length of vectors
     3.855989654  3.855989654 11.567958633     0.259336795  0.259336795  0.086445676

  position of ions in fractional coordinates (direct lattice)
     0.000000000  0.500000000  0.166670000
     0.000000000  0.500000000  0.500000000
     0.000000000  0.500000000  0.833330000
     0.500000000  0.500000000  0.000000000
     0.500000000  0.500000000  0.333330000
     0.500000000  0.500000000  0.666670000
     0.500000000  0.000000000  0.166670000
     0.500000000  0.000000000  0.500000000
     0.500000000  0.000000000  0.833330000
     0.000000000  0.000000000  0.000000000
     0.000000000  0.000000000  0.333330000
     0.000000000  0.000000000  0.666670000

  ion indices of the primitive-cell ions
   primitive index   ion index
                 1           1
                 2           2
                 3           3
                 4           4
                 5           5
                 6           6
                 7           7
                 8           8
                 9           9
                10          10
                11          11
                12          12

----------------------------------------------------------------------------------------

 
 
 KPOINTS: pymatgen with grid density = 8800 / numb

Automatic generation of k-mesh.
 Grid dimensions read from file:
 generate k-points for:   13   13    4

 Generating k-lattice:

  Cartesian coordinates                     Fractional coordinates (reciprocal lattice)
     0.019948984  0.000000000  0.000000000     0.076923077  0.000000000  0.000000000
     0.000000000  0.019948984  0.000000000     0.000000000  0.076923077  0.000000000
     0.000000000  0.000000000  0.021611419     0.000000000  0.000000000  0.250000000

  Length of vectors
     0.019948984  0.019948984  0.021611419

  Shift w.r.t. Gamma in fractional coordinates (k-lattice)
     0.000000000  0.000000000  0.000000000

 
 Subroutine IBZKPT returns following result:
 ===========================================
 
 Found     84 irreducible k-points:
 
 Following reciprocal coordinates:
            Coordinates               Weight
  0.000000  0.000000  0.000000      1.000000
  0.076923  0.000000  0.000000      4.000000
  0.153846  0.000000  0.000000      4.000000
  0.230769  0.000000  0.000000      4.000000
  0.307692  0.000000  0.000000      4.000000
  0.384615  0.000000  0.000000      4.000000
  0.461538  0.000000  0.000000      4.000000
  0.076923  0.076923  0.000000      4.000000
  0.153846  0.076923  0.000000      8.000000
  0.230769  0.076923  0.000000      8.000000
  0.307692  0.076923  0.000000      8.000000
  0.384615  0.076923  0.000000      8.000000
  0.461538  0.076923  0.000000      8.000000
  0.153846  0.153846  0.000000      4.000000
  0.230769  0.153846  0.000000      8.000000
  0.307692  0.153846  0.000000      8.000000
  0.384615  0.153846  0.000000      8.000000
  0.461538  0.153846  0.000000      8.000000
  0.230769  0.230769  0.000000      4.000000
  0.307692  0.230769  0.000000      8.000000
  0.384615  0.230769  0.000000      8.000000
  0.461538  0.230769  0.000000      8.000000
  0.307692  0.307692  0.000000      4.000000
  0.384615  0.307692  0.000000      8.000000
  0.461538  0.307692  0.000000      8.000000
  0.384615  0.384615  0.000000      4.000000
  0.461538  0.384615  0.000000      8.000000
  0.461538  0.461538  0.000000      4.000000
  0.000000  0.000000  0.250000      2.000000
  0.076923  0.000000  0.250000      8.000000
  0.153846  0.000000  0.250000      8.000000
  0.230769  0.000000  0.250000      8.000000
  0.307692  0.000000  0.250000      8.000000
  0.384615  0.000000  0.250000      8.000000
  0.461538  0.000000  0.250000      8.000000
  0.076923  0.076923  0.250000      8.000000
  0.153846  0.076923  0.250000     16.000000
  0.230769  0.076923  0.250000     16.000000
  0.307692  0.076923  0.250000     16.000000
  0.384615  0.076923  0.250000     16.000000
  0.461538  0.076923  0.250000     16.000000
  0.153846  0.153846  0.250000      8.000000
  0.230769  0.153846  0.250000     16.000000
  0.307692  0.153846  0.250000     16.000000
  0.384615  0.153846  0.250000     16.000000
  0.461538  0.153846  0.250000     16.000000
  0.230769  0.230769  0.250000      8.000000
  0.307692  0.230769  0.250000     16.000000
  0.384615  0.230769  0.250000     16.000000
  0.461538  0.230769  0.250000     16.000000
  0.307692  0.307692  0.250000      8.000000
  0.384615  0.307692  0.250000     16.000000
  0.461538  0.307692  0.250000     16.000000
  0.384615  0.384615  0.250000      8.000000
  0.461538  0.384615  0.250000     16.000000
  0.461538  0.461538  0.250000      8.000000
  0.000000  0.000000  0.500000      1.000000
  0.076923  0.000000  0.500000      4.000000
  0.153846  0.000000  0.500000      4.000000
  0.230769  0.000000  0.500000      4.000000
  0.307692  0.000000  0.500000      4.000000
  0.384615  0.000000  0.500000      4.000000
  0.461538  0.000000  0.500000      4.000000
  0.076923  0.076923  0.500000      4.000000
  0.153846  0.076923  0.500000      8.000000
  0.230769  0.076923  0.500000      8.000000
  0.307692  0.076923  0.500000      8.000000
  0.384615  0.076923  0.500000      8.000000
  0.461538  0.076923  0.500000      8.000000
  0.153846  0.153846  0.500000      4.000000
  0.230769  0.153846  0.500000      8.000000
  0.307692  0.153846  0.500000      8.000000
  0.384615  0.153846  0.500000      8.000000
  0.461538  0.153846  0.500000      8.000000
  0.230769  0.230769  0.500000      4.000000
  0.307692  0.230769  0.500000      8.000000
  0.384615  0.230769  0.500000      8.000000
  0.461538  0.230769  0.500000      8.000000
  0.307692  0.307692  0.500000      4.000000
  0.384615  0.307692  0.500000      8.000000
  0.461538  0.307692  0.500000      8.000000
  0.384615  0.384615  0.500000      4.000000
  0.461538  0.384615  0.500000      8.000000
  0.461538  0.461538  0.500000      4.000000
 
 Following cartesian coordinates:
            Coordinates               Weight
  0.000000  0.000000  0.000000      1.000000
  0.019949  0.000000  0.000000      4.000000
  0.039898  0.000000  0.000000      4.000000
  0.059847  0.000000  0.000000      4.000000
  0.079796  0.000000  0.000000      4.000000
  0.099745  0.000000  0.000000      4.000000
  0.119694  0.000000  0.000000      4.000000
  0.019949  0.019949  0.000000      4.000000
  0.039898  0.019949  0.000000      8.000000
  0.059847  0.019949  0.000000      8.000000
  0.079796  0.019949  0.000000      8.000000
  0.099745  0.019949  0.000000      8.000000
  0.119694  0.019949  0.000000      8.000000
  0.039898  0.039898  0.000000      4.000000
  0.059847  0.039898  0.000000      8.000000
  0.079796  0.039898  0.000000      8.000000
  0.099745  0.039898  0.000000      8.000000
  0.119694  0.039898  0.000000      8.000000
  0.059847  0.059847  0.000000      4.000000
  0.079796  0.059847  0.000000      8.000000
  0.099745  0.059847  0.000000      8.000000
  0.119694  0.059847  0.000000      8.000000
  0.079796  0.079796  0.000000      4.000000
  0.099745  0.079796  0.000000      8.000000
  0.119694  0.079796  0.000000      8.000000
  0.099745  0.099745  0.000000      4.000000
  0.119694  0.099745  0.000000      8.000000
  0.119694  0.119694  0.000000      4.000000
  0.000000  0.000000  0.021611      2.000000
  0.019949  0.000000  0.021611      8.000000
  0.039898  0.000000  0.021611      8.000000
  0.059847  0.000000  0.021611      8.000000
  0.079796  0.000000  0.021611      8.000000
  0.099745  0.000000  0.021611      8.000000
  0.119694  0.000000  0.021611      8.000000
  0.019949  0.019949  0.021611      8.000000
  0.039898  0.019949  0.021611     16.000000
  0.059847  0.019949  0.021611     16.000000
  0.079796  0.019949  0.021611     16.000000
  0.099745  0.019949  0.021611     16.000000
  0.119694  0.019949  0.021611     16.000000
  0.039898  0.039898  0.021611      8.000000
  0.059847  0.039898  0.021611     16.000000
  0.079796  0.039898  0.021611     16.000000
  0.099745  0.039898  0.021611     16.000000
  0.119694  0.039898  0.021611     16.000000
  0.059847  0.059847  0.021611      8.000000
  0.079796  0.059847  0.021611     16.000000
  0.099745  0.059847  0.021611     16.000000
  0.119694  0.059847  0.021611     16.000000
  0.079796  0.079796  0.021611      8.000000
  0.099745  0.079796  0.021611     16.000000
  0.119694  0.079796  0.021611     16.000000
  0.099745  0.099745  0.021611      8.000000
  0.119694  0.099745  0.021611     16.000000
  0.119694  0.119694  0.021611      8.000000
  0.000000  0.000000  0.043223      1.000000
  0.019949  0.000000  0.043223      4.000000
  0.039898  0.000000  0.043223      4.000000
  0.059847  0.000000  0.043223      4.000000
  0.079796  0.000000  0.043223      4.000000
  0.099745  0.000000  0.043223      4.000000
  0.119694  0.000000  0.043223      4.000000
  0.019949  0.019949  0.043223      4.000000
  0.039898  0.019949  0.043223      8.000000
  0.059847  0.019949  0.043223      8.000000
  0.079796  0.019949  0.043223      8.000000
  0.099745  0.019949  0.043223      8.000000
  0.119694  0.019949  0.043223      8.000000
  0.039898  0.039898  0.043223      4.000000
  0.059847  0.039898  0.043223      8.000000
  0.079796  0.039898  0.043223      8.000000
  0.099745  0.039898  0.043223      8.000000
  0.119694  0.039898  0.043223      8.000000
  0.059847  0.059847  0.043223      4.000000
  0.079796  0.059847  0.043223      8.000000
  0.099745  0.059847  0.043223      8.000000
  0.119694  0.059847  0.043223      8.000000
  0.079796  0.079796  0.043223      4.000000
  0.099745  0.079796  0.043223      8.000000
  0.119694  0.079796  0.043223      8.000000
  0.099745  0.099745  0.043223      4.000000
  0.119694  0.099745  0.043223      8.000000
  0.119694  0.119694  0.043223      4.000000
 


--------------------------------------------------------------------------------------------------------




 Dimension of arrays:
   k-points           NKPTS =     84   k-points in BZ     NKDIM =     84   number of bands    NBANDS=    128
   number of dos      NEDOS =    301   number of ions     NIONS =     12
   non local maximal  LDIM  =      6   non local SUM 2l+1 LMDIM =     18
   total plane-waves  NPLWV =  81000
   max r-space proj   IRMAX =      1   max aug-charges    IRDMAX=  28719
   dimension x,y,z NGX =    30 NGY =   30 NGZ =   90
   dimension x,y,z NGXF=    60 NGYF=   60 NGZF=  180
   support grid    NGXF=    60 NGYF=   60 NGZF=  180
   ions per type =               9   3
   NGX,Y,Z   is equivalent  to a cutoff of  12.93, 12.93, 12.93 a.u.
   NGXF,Y,Z  is equivalent  to a cutoff of  25.87, 25.87, 25.87 a.u.

 SYSTEM =  unknown system                          
 POSCAR =  Fe9 Pt3                                 

 Startparameter for this run:
   NWRITE =      2    write-flag & timer
   PREC   = accura    normal or accurate (medium, high low for compatibility)
   ISTART =      0    job   : 0-new  1-cont  2-samecut
   ICHARG =      2    charge: 1-file 2-atom 10-const
   ISPIN  =      2    spin polarized calculation?
   LNONCOLLINEAR =      F non collinear calculations
   LSORBIT =      F    spin-orbit coupling
   INIWAV =      1    electr: 0-lowe 1-rand  2-diag
   LASPH  =      F    aspherical Exc in radial PAW
 Electronic Relaxation 1
   ENCUT  =  520.0 eV  38.22 Ry    6.18 a.u.   7.17  7.17 21.51*2*pi/ulx,y,z
   ENINI  =  520.0     initial cutoff
   ENAUG  =  578.3 eV  augmentation charge cutoff
   NELM   =    200;   NELMIN=  2; NELMDL= -5     # of ELM steps 
   EDIFF  = 0.1E-05   stopping-criterion for ELM
   LREAL  =      F    real-space projection
   NLSPLINE    = F    spline interpolate recip. space projectors
   LCOMPAT=      F    compatible to vasp.4.4
   GGA_COMPAT  = T    GGA compatible to vasp.4.4-vasp.4.6
   LMAXPAW     = -100 max onsite density
   LMAXMIX     =    2 max onsite mixed and CHGCAR
   VOSKOWN=      0    Vosko Wilk Nusair interpolation
   ROPT   =    0.00000   0.00000
 Ionic relaxation
   EDIFFG = -.1E-01   stopping-criterion for IOM
   NSW    =    100    number of steps for IOM
   NBLOCK =      1;   KBLOCK =    100    inner block; outer block 
   IBRION =      2    ionic relax: 0-MD 1-quasi-New 2-CG
   NFREE  =      1    steps in history (QN), initial steepest desc. (CG)
   ISIF   =      4    stress and relaxation
   IWAVPR =     11    prediction:  0-non 1-charg 2-wave 3-comb
   ISYM   =      2    0-nonsym 1-usesym 2-fastsym
   LCORR  =      T    Harris-Foulkes like correction to forces

   POTIM  = 0.5000    time-step for ionic-motion
   TEIN   =    0.0    initial temperature
   TEBEG  =    0.0;   TEEND  =   0.0 temperature during run
   SMASS  =  -3.00    Nose mass-parameter (am)
   estimated Nose-frequenzy (Omega)   =  0.10E-29 period in steps = 0.13E+47 mass=  -0.340E-27a.u.
   SCALEE = 1.0000    scale energy and forces
   NPACO  =    256;   APACO  = 10.0  distance and # of slots for P.C.
   PSTRESS=    0.0 pullay stress

  Mass of Ions in am
   POMASS =  55.85195.08
  Ionic Valenz
   ZVAL   =  14.00 10.00
  Atomic Wigner-Seitz radii
   RWIGS  =  -1.00 -1.00
  virtual crystal weights 
   VCA    =   1.00  1.00
   NELECT =     156.0000    total number of electrons
   NUPDOWN=      -1.0000    fix difference up-down

 DOS related values:
   EMIN   =  10.00;   EMAX   =-10.00  energy-range for DOS
   EFERMI =   0.00;   METHOD = LEGACY      
   ISMEAR =     1;   SIGMA  =   0.20  broadening in eV -4-tet -1-fermi 0-gaus

 Electronic relaxation 2 (details)
   IALGO  =     58    algorithm
   LDIAG  =      T    sub-space diagonalisation (order eigenvalues)
   LSUBROT=      F    optimize rotation matrix (better conditioning)
   TURBO    =      0    0=normal 1=particle mesh
   IRESTART =      0    0=no restart 2=restart with 2 vectors
   NREBOOT  =      0    no. of reboots
   NMIN     =      0    reboot dimension
   EREF     =   0.00    reference energy to select bands
   IMIX   =      4    mixing-type and parameters
     AMIX     =   0.40;   BMIX     =  1.00
     AMIX_MAG =   1.60;   BMIX_MAG =  1.00
     AMIN     =   0.10
     WC   =   100.;   INIMIX=   1;  MIXPRE=   1;  MAXMIX= -45

 Intra band minimization:
   WEIMIN = 0.0010     energy-eigenvalue tresh-hold
   EBREAK =  0.20E-08  absolut break condition
   DEPER  =   0.30     relativ break condition  

   TIME   =   0.40     timestep for ELM

  volume/ion in A,a.u.               =      14.33        96.73
  Fermi-wavevector in a.u.,A,eV,Ry     =   1.584675  2.994602 34.166882  2.511195
  Thomas-Fermi vector in A             =   2.684256
 
 Write flags
   LWAVE        =      F    write WAVECAR
   LDOWNSAMPLE  =      F    k-point downsampling of WAVECAR
   LCHARG       =      T    write CHGCAR
   LVTOT        =      F    write LOCPOT, total local potential
   LVHAR        =      F    write LOCPOT, Hartree potential only
   WRT_POTENTIAL= false  ! write potential to hdf5 file
   LELF         =      F    write electronic localiz. function (ELF)
   LORBIT       =     11    0 simple, 1 ext, 2 COOP (PROOUT), +10 PAW based schemes


 Dipole corrections
   LMONO      =      F    monopole corrections only (constant potential shift)
   LDIPOL     =      F    correct potential (dipole corrections)
   IDIPOL     =      0    1-x, 2-y, 3-z, 4-all directions 
   EPSILON    =  1.0000000 bulk dielectric constant
   LVACPOTAV  =      F  vacuum potentials using an averaging scheme for the charge density
   VACPOTFLAT =  0.1000000 required flatness to determine vacuum potential
 Exchange correlation treatment:
   GGA     = PE    functional components
   XC_C    = 1    coefficients multiplying the functional components
   LIBXC   =     F    Libxc                    
   VOSKOWN =     0    Vosko Wilk Nusair interpolation
   LHFCALC =     F    Hartree Fock is set to
   LHFONE  =     F    Hartree Fock one center treatment
   AEXX    =    0.0000 exact exchange contribution

 Parameters of functionals:
   PE:
     No parameter
 
 Van der Waals corrections
   IVDW    =     0    specifies the selected vdW correction

 Linear response parameters
   LEPSILON=     F    determine dielectric tensor
   LRPA    =     F    only Hartree local field effects (RPA)
   LNABLA  =     F    use nabla operator in PAW spheres
   LVEL    =     F    velocity operator in full k-point grid
   CSHIFT  =0.1000    complex shift for real part using Kramers Kronig
   OMEGAMAX=  -1.0    maximum frequency
   DEG_THRESHOLD= 0.2000000E-02 threshold for treating states as degnerate
   RTIME   =   -0.100 relaxation time in fs
  (WPLASMAI=    0.000 imaginary part of plasma frequency in eV, 0.658/RTIME)
   DFIELD  = 0.0000000 0.0000000 0.0000000 field for delta impulse in time
 
  Optional k-point grid parameters
   LKPOINTS_OPT  =     F    use optional k-point grid
   KPOINTS_OPT_MODE=     1    mode for optional k-point grid
 
 Orbital magnetization related:
   ORBITALMAG=     F  switch on orbital magnetization
   LCHIMAG   =     F  perturbation theory with respect to B field
   DQ        =  0.001000  dq finite difference perturbation B field
   LLRAUG    =     F  two centre corrections for induced B field
   LBONE     =     F  B-component reconstruction in AE one-centre
   LVGVCALC  =     T  calculate vGv susceptibility
   LVGVAPPL  =     F  apply vGv susceptibility instead of pGv for G=0

 Random number generation:
   RANDOM_GENERATOR = DEFAULT
   PCG_SEED         = not used


--------------------------------------------------------------------------------------------------------


 conjugate gradient relaxation of ions
 charge density and potential will be updated during run
 spin polarized calculation
 Conjugate gradient for all bands (Freysoldt, et al. PRB 79, 241103 (2009))
 preconditioned conjugated gradient                                        
 perform sub-space diagonalisation
    before iterative eigenvector-optimisation
 modified Broyden-mixing scheme, WC =      100.0
 initial mixing is a Kerker type mixing with AMIX =  0.4000 and BMIX =      1.0000
 Hartree-type preconditioning will be used
 using additional bands           50
 reciprocal scheme for non local part
 use partial core corrections
 no Harris-corrections to forces 
 use gradient corrections 
 use of overlap-Matrix (Vanderbilt PP)
 Methfessel and Paxton  Order N= 1 SIGMA  =   0.20


--------------------------------------------------------------------------------------------------------


  energy-cutoff  :      520.00
  volume of cell :      172.00
      direct lattice vectors                 reciprocal lattice vectors
     3.855989654  0.000000000  0.000000000     0.259336795  0.000000000  0.000000000
     0.000000000  3.855989654  0.000000000     0.000000000  0.259336795  0.000000000
     0.000000000  0.000000000 11.567958633     0.000000000  0.000000000  0.086445676

  length of vectors
     3.855989654  3.855989654 11.567958633     0.259336795  0.259336795  0.086445676


 
 k-points in units of 2pi/SCALE and weight: pymatgen with grid density = 8800 / numb
   0.00000000  0.00000000  0.00000000       0.001
   0.01994898  0.00000000  0.00000000       0.006
   0.03989797  0.00000000  0.00000000       0.006
   0.05984695  0.00000000  0.00000000       0.006
   0.07979594  0.00000000  0.00000000       0.006
   0.09974492  0.00000000  0.00000000       0.006
   0.11969391  0.00000000  0.00000000       0.006
   0.01994898  0.01994898  0.00000000       0.006
   0.03989797  0.01994898  0.00000000       0.012
   0.05984695  0.01994898  0.00000000       0.012
   0.07979594  0.01994898  0.00000000       0.012
   0.09974492  0.01994898  0.00000000       0.012
   0.11969391  0.01994898  0.00000000       0.012
   0.03989797  0.03989797  0.00000000       0.006
   0.05984695  0.03989797  0.00000000       0.012
   0.07979594  0.03989797  0.00000000       0.012
   0.09974492  0.03989797  0.00000000       0.012
   0.11969391  0.03989797  0.00000000       0.012
   0.05984695  0.05984695  0.00000000       0.006
   0.07979594  0.05984695  0.00000000       0.012
   0.09974492  0.05984695  0.00000000       0.012
   0.11969391  0.05984695  0.00000000       0.012
   0.07979594  0.07979594  0.00000000       0.006
   0.09974492  0.07979594  0.00000000       0.012
   0.11969391  0.07979594  0.00000000       0.012
   0.09974492  0.09974492  0.00000000       0.006
   0.11969391  0.09974492  0.00000000       0.012
   0.11969391  0.11969391  0.00000000       0.006
   0.00000000  0.00000000  0.02161142       0.003
   0.01994898  0.00000000  0.02161142       0.012
   0.03989797  0.00000000  0.02161142       0.012
   0.05984695  0.00000000  0.02161142       0.012
   0.07979594  0.00000000  0.02161142       0.012
   0.09974492  0.00000000  0.02161142       0.012
   0.11969391  0.00000000  0.02161142       0.012
   0.01994898  0.01994898  0.02161142       0.012
   0.03989797  0.01994898  0.02161142       0.024
   0.05984695  0.01994898  0.02161142       0.024
   0.07979594  0.01994898  0.02161142       0.024
   0.09974492  0.01994898  0.02161142       0.024
   0.11969391  0.01994898  0.02161142       0.024
   0.03989797  0.03989797  0.02161142       0.012
   0.05984695  0.03989797  0.02161142       0.024
   0.07979594  0.03989797  0.02161142       0.024
   0.09974492  0.03989797  0.02161142       0.024
   0.11969391  0.03989797  0.02161142       0.024
   0.05984695  0.05984695  0.02161142       0.012
   0.07979594  0.05984695  0.02161142       0.024
   0.09974492  0.05984695  0.02161142       0.024
   0.11969391  0.05984695  0.02161142       0.024
   0.07979594  0.07979594  0.02161142       0.012
   0.09974492  0.07979594  0.02161142       0.024
   0.11969391  0.07979594  0.02161142       0.024
   0.09974492  0.09974492  0.02161142       0.012
   0.11969391  0.09974492  0.02161142       0.024
   0.11969391  0.11969391  0.02161142       0.012
   0.00000000  0.00000000  0.04322284       0.001
   0.01994898  0.00000000  0.04322284       0.006
   0.03989797  0.00000000  0.04322284       0.006
   0.05984695  0.00000000  0.04322284       0.006
   0.07979594  0.00000000  0.04322284       0.006
   0.09974492  0.00000000  0.04322284       0.006
   0.11969391  0.00000000  0.04322284       0.006
   0.01994898  0.01994898  0.04322284       0.006
   0.03989797  0.01994898  0.04322284       0.012
   0.05984695  0.01994898  0.04322284       0.012
   0.07979594  0.01994898  0.04322284       0.012
   0.09974492  0.01994898  0.04322284       0.012
   0.11969391  0.01994898  0.04322284       0.012
   0.03989797  0.03989797  0.04322284       0.006
   0.05984695  0.03989797  0.04322284       0.012
   0.07979594  0.03989797  0.04322284       0.012
   0.09974492  0.03989797  0.04322284       0.012
   0.11969391  0.03989797  0.04322284       0.012
   0.05984695  0.05984695  0.04322284       0.006
   0.07979594  0.05984695  0.04322284       0.012
   0.09974492  0.05984695  0.04322284       0.012
   0.11969391  0.05984695  0.04322284       0.012
   0.07979594  0.07979594  0.04322284       0.006
   0.09974492  0.07979594  0.04322284       0.012
   0.11969391  0.07979594  0.04322284       0.012
   0.09974492  0.09974492  0.04322284       0.006
   0.11969391  0.09974492  0.04322284       0.012
   0.11969391  0.11969391  0.04322284       0.006
 
 k-points in reciprocal lattice and weights: pymatgen with grid density = 8800 / numb
   0.00000000  0.00000000  0.00000000       0.001
   0.07692308  0.00000000  0.00000000       0.006
   0.15384615  0.00000000  0.00000000       0.006
   0.23076923  0.00000000  0.00000000       0.006
   0.30769231  0.00000000  0.00000000       0.006
   0.38461538  0.00000000  0.00000000       0.006
   0.46153846  0.00000000  0.00000000       0.006
   0.07692308  0.07692308  0.00000000       0.006
   0.15384615  0.07692308  0.00000000       0.012
   0.23076923  0.07692308  0.00000000       0.012
   0.30769231  0.07692308  0.00000000       0.012
   0.38461538  0.07692308  0.00000000       0.012
   0.46153846  0.07692308  0.00000000       0.012
   0.15384615  0.15384615  0.00000000       0.006
   0.23076923  0.15384615  0.00000000       0.012
   0.30769231  0.15384615  0.00000000       0.012
   0.38461538  0.15384615  0.00000000       0.012
   0.46153846  0.15384615  0.00000000       0.012
   0.23076923  0.23076923  0.00000000       0.006
   0.30769231  0.23076923  0.00000000       0.012
   0.38461538  0.23076923  0.00000000       0.012
   0.46153846  0.23076923  0.00000000       0.012
   0.30769231  0.30769231  0.00000000       0.006
   0.38461538  0.30769231  0.00000000       0.012
   0.46153846  0.30769231  0.00000000       0.012
   0.38461538  0.38461538  0.00000000       0.006
   0.46153846  0.38461538  0.00000000       0.012
   0.46153846  0.46153846  0.00000000       0.006
   0.00000000  0.00000000  0.25000000       0.003
   0.07692308  0.00000000  0.25000000       0.012
   0.15384615  0.00000000  0.25000000       0.012
   0.23076923  0.00000000  0.25000000       0.012
   0.30769231  0.00000000  0.25000000       0.012
   0.38461538  0.00000000  0.25000000       0.012
   0.46153846  0.00000000  0.25000000       0.012
   0.07692308  0.07692308  0.25000000       0.012
   0.15384615  0.07692308  0.25000000       0.024
   0.23076923  0.07692308  0.25000000       0.024
   0.30769231  0.07692308  0.25000000       0.024
   0.38461538  0.07692308  0.25000000       0.024
   0.46153846  0.07692308  0.25000000       0.024
   0.15384615  0.15384615  0.25000000       0.012
   0.23076923  0.15384615  0.25000000       0.024
   0.30769231  0.15384615  0.25000000       0.024
   0.38461538  0.15384615  0.25000000       0.024
   0.46153846  0.15384615  0.25000000       0.024
   0.23076923  0.23076923  0.25000000       0.012
   0.30769231  0.23076923  0.25000000       0.024
   0.38461538  0.23076923  0.25000000       0.024
   0.46153846  0.23076923  0.25000000       0.024
   0.30769231  0.30769231  0.25000000       0.012
   0.38461538  0.30769231  0.25000000       0.024
   0.46153846  0.30769231  0.25000000       0.024
   0.38461538  0.38461538  0.25000000       0.012
   0.46153846  0.38461538  0.25000000       0.024
   0.46153846  0.46153846  0.25000000       0.012
   0.00000000  0.00000000  0.50000000       0.001
   0.07692308  0.00000000  0.50000000       0.006
   0.15384615  0.00000000  0.50000000       0.006
   0.23076923  0.00000000  0.50000000       0.006
   0.30769231  0.00000000  0.50000000       0.006
   0.38461538  0.00000000  0.50000000       0.006
   0.46153846  0.00000000  0.50000000       0.006
   0.07692308  0.07692308  0.50000000       0.006
   0.15384615  0.07692308  0.50000000       0.012
   0.23076923  0.07692308  0.50000000       0.012
   0.30769231  0.07692308  0.50000000       0.012
   0.38461538  0.07692308  0.50000000       0.012
   0.46153846  0.07692308  0.50000000       0.012
   0.15384615  0.15384615  0.50000000       0.006
   0.23076923  0.15384615  0.50000000       0.012
   0.30769231  0.15384615  0.50000000       0.012
   0.38461538  0.15384615  0.50000000       0.012
   0.46153846  0.15384615  0.50000000       0.012
   0.23076923  0.23076923  0.50000000       0.006
   0.30769231  0.23076923  0.50000000       0.012
   0.38461538  0.23076923  0.50000000       0.012
   0.46153846  0.23076923  0.50000000       0.012
   0.30769231  0.30769231  0.50000000       0.006
   0.38461538  0.30769231  0.50000000       0.012
   0.46153846  0.30769231  0.50000000       0.012
   0.38461538  0.38461538  0.50000000       0.006
   0.46153846  0.38461538  0.50000000       0.012
   0.46153846  0.46153846  0.50000000       0.006
 
 position of ions in fractional coordinates (direct lattice) 
   0.00000000  0.50000000  0.16667000
   0.00000000  0.50000000  0.50000000
   0.00000000  0.50000000  0.83333000
   0.50000000  0.50000000  0.00000000
   0.50000000  0.50000000  0.33333000
   0.50000000  0.50000000  0.66667000
   0.50000000  0.00000000  0.16667000
   0.50000000  0.00000000  0.50000000
   0.50000000  0.00000000  0.83333000
   0.00000000  0.00000000  0.00000000
   0.00000000  0.00000000  0.33333000
   0.00000000  0.00000000  0.66667000
 
 position of ions in cartesian coordinates  (Angst):
   0.00000000  1.92799483  1.92803167
   0.00000000  1.92799483  5.78397932
   0.00000000  1.92799483  9.63992697
   1.92799483  1.92799483  0.00000000
   1.92799483  1.92799483  3.85594765
   1.92799483  1.92799483  7.71201098
   1.92799483  0.00000000  1.92803167
   1.92799483  0.00000000  5.78397932
   1.92799483  0.00000000  9.63992697
   0.00000000  0.00000000  0.00000000
   0.00000000  0.00000000  3.85594765
   0.00000000  0.00000000  7.71201098
 


--------------------------------------------------------------------------------------------------------


 k-point     1 :   0.0000 0.0000 0.0000  plane waves:    4619
 k-point     2 :   0.0769 0.0000 0.0000  plane waves:    4619
 k-point     3 :   0.1538 0.0000 0.0000  plane waves:    4629
 k-point     4 :   0.2308 0.0000 0.0000  plane waves:    4616
 k-point     5 :   0.3077 0.0000 0.0000  plane waves:    4642
 k-point     6 :   0.3846 0.0000 0.0000  plane waves:    4634
 k-point     7 :   0.4615 0.0000 0.0000  plane waves:    4642
 k-point     8 :   0.0769 0.0769 0.0000  plane waves:    4612
 k-point     9 :   0.1538 0.0769 0.0000  plane waves:    4611
 k-point    10 :   0.2308 0.0769 0.0000  plane waves:    4640
 k-point    11 :   0.3077 0.0769 0.0000  plane waves:    4648
 k-point    12 :   0.3846 0.0769 0.0000  plane waves:    4650
 k-point    13 :   0.4615 0.0769 0.0000  plane waves:    4651
 k-point    14 :   0.1538 0.1538 0.0000  plane waves:    4612
 k-point    15 :   0.2308 0.1538 0.0000  plane waves:    4639
 k-point    16 :   0.3077 0.1538 0.0000  plane waves:    4634
 k-point    17 :   0.3846 0.1538 0.0000  plane waves:    4637
 k-point    18 :   0.4615 0.1538 0.0000  plane waves:    4633
 k-point    19 :   0.2308 0.2308 0.0000  plane waves:    4644
 k-point    20 :   0.3077 0.2308 0.0000  plane waves:    4629
 k-point    21 :   0.3846 0.2308 0.0000  plane waves:    4629
 k-point    22 :   0.4615 0.2308 0.0000  plane waves:    4620
 k-point    23 :   0.3077 0.3077 0.0000  plane waves:    4642
 k-point    24 :   0.3846 0.3077 0.0000  plane waves:    4633
 k-point    25 :   0.4615 0.3077 0.0000  plane waves:    4636
 k-point    26 :   0.3846 0.3846 0.0000  plane waves:    4632
 k-point    27 :   0.4615 0.3846 0.0000  plane waves:    4639
 k-point    28 :   0.4615 0.4615 0.0000  plane waves:    4650
 k-point    29 :   0.0000 0.0000 0.2500  plane waves:    4607
 k-point    30 :   0.0769 0.0000 0.2500  plane waves:    4612
 k-point    31 :   0.1538 0.0000 0.2500  plane waves:    4619
 k-point    32 :   0.2308 0.0000 0.2500  plane waves:    4635
 k-point    33 :   0.3077 0.0000 0.2500  plane waves:    4639
 k-point    34 :   0.3846 0.0000 0.2500  plane waves:    4643
 k-point    35 :   0.4615 0.0000 0.2500  plane waves:    4640
 k-point    36 :   0.0769 0.0769 0.2500  plane waves:    4608
 k-point    37 :   0.1538 0.0769 0.2500  plane waves:    4618
 k-point    38 :   0.2308 0.0769 0.2500  plane waves:    4628
 k-point    39 :   0.3077 0.0769 0.2500  plane waves:    4630
 k-point    40 :   0.3846 0.0769 0.2500  plane waves:    4646
 k-point    41 :   0.4615 0.0769 0.2500  plane waves:    4640
 k-point    42 :   0.1538 0.1538 0.2500  plane waves:    4614
 k-point    43 :   0.2308 0.1538 0.2500  plane waves:    4625
 k-point    44 :   0.3077 0.1538 0.2500  plane waves:    4635
 k-point    45 :   0.3846 0.1538 0.2500  plane waves:    4632
 k-point    46 :   0.4615 0.1538 0.2500  plane waves:    4634
 k-point    47 :   0.2308 0.2308 0.2500  plane waves:    4626
 k-point    48 :   0.3077 0.2308 0.2500  plane waves:    4632
 k-point    49 :   0.3846 0.2308 0.2500  plane waves:    4626
 k-point    50 :   0.4615 0.2308 0.2500  plane waves:    4629
 k-point    51 :   0.3077 0.3077 0.2500  plane waves:    4640
 k-point    52 :   0.3846 0.3077 0.2500  plane waves:    4632
 k-point    53 :   0.4615 0.3077 0.2500  plane waves:    4635
 k-point    54 :   0.3846 0.3846 0.2500  plane waves:    4643
 k-point    55 :   0.4615 0.3846 0.2500  plane waves:    4635
 k-point    56 :   0.4615 0.4615 0.2500  plane waves:    4644
 k-point    57 :   0.0000 0.0000 0.5000  plane waves:    4628
 k-point    58 :   0.0769 0.0000 0.5000  plane waves:    4604
 k-point    59 :   0.1538 0.0000 0.5000  plane waves:    4620
 k-point    60 :   0.2308 0.0000 0.5000  plane waves:    4636
 k-point    61 :   0.3077 0.0000 0.5000  plane waves:    4634
 k-point    62 :   0.3846 0.0000 0.5000  plane waves:    4648
 k-point    63 :   0.4615 0.0000 0.5000  plane waves:    4640
 k-point    64 :   0.0769 0.0769 0.5000  plane waves:    4610
 k-point    65 :   0.1538 0.0769 0.5000  plane waves:    4622
 k-point    66 :   0.2308 0.0769 0.5000  plane waves:    4620
 k-point    67 :   0.3077 0.0769 0.5000  plane waves:    4634
 k-point    68 :   0.3846 0.0769 0.5000  plane waves:    4636
 k-point    69 :   0.4615 0.0769 0.5000  plane waves:    4638
 k-point    70 :   0.1538 0.1538 0.5000  plane waves:    4602
 k-point    71 :   0.2308 0.1538 0.5000  plane waves:    4608
 k-point    72 :   0.3077 0.1538 0.5000  plane waves:    4618
 k-point    73 :   0.3846 0.1538 0.5000  plane waves:    4622
 k-point    74 :   0.4615 0.1538 0.5000  plane waves:    4632
 k-point    75 :   0.2308 0.2308 0.5000  plane waves:    4624
 k-point    76 :   0.3077 0.2308 0.5000  plane waves:    4634
 k-point    77 :   0.3846 0.2308 0.5000  plane waves:    4626
 k-point    78 :   0.4615 0.2308 0.5000  plane waves:    4634
 k-point    79 :   0.3077 0.3077 0.5000  plane waves:    4628
 k-point    80 :   0.3846 0.3077 0.5000  plane waves:    4626
 k-point    81 :   0.4615 0.3077 0.5000  plane waves:    4628
 k-point    82 :   0.3846 0.3846 0.5000  plane waves:    4642
 k-point    83 :   0.4615 0.3846 0.5000  plane waves:    4644
 k-point    84 :   0.4615 0.4615 0.5000  plane waves:    4664

 maximum and minimum number of plane-waves per node :      4664     4602

 maximum number of plane-waves:      4664
 maximum index in each direction: 
   IXMAX=    7   IYMAX=    7   IZMAX=   21
   IXMIN=   -7   IYMIN=   -7   IZMIN=  -22


 serial   3D FFT for wavefunctions
 parallel 3D FFT for charge:
    minimum data exchange during FFTs selected (reduces bandwidth)


 total amount of memory used by VASP MPI-rank0   311525. kBytes
=======================================================================

   base      :      30000. kBytes
   nonl-proj :     113922. kBytes
   fftplans  :       1055. kBytes
   grid      :       8252. kBytes
   one-center:        373. kBytes
   wavefun   :     157923. kBytes
 
     INWAV:  cpu time      0.0001: real time      0.0001
 Broyden mixing: mesh for mixing (old mesh)
   NGX = 15   NGY = 15   NGZ = 43
  (NGX  = 60   NGY  = 60   NGZ  =180)
  gives a total of   9675 points

 initial charge density was supplied:
 charge density of overlapping atoms calculated
 number of electron     156.0000000 magnetization      45.0000000
 keeping initial charge density in first step


--------------------------------------------------------------------------------------------------------


 Maximum index for augmentation-charges         1101 (set IRDMAX)


--------------------------------------------------------------------------------------------------------


 First call to EWALD:  gamma=   0.319
 Maximum number of real-space cells 4x 4x 2
 Maximum number of reciprocal cells 2x 2x 5

    FEWALD:  cpu time      0.0028: real time      0.0028


--------------------------------------- Ionic step        1  -------------------------------------------




--------------------------------------- Iteration      1(   1)  ---------------------------------------


    POTLOK:  cpu time      0.0459: real time      0.0487
    SETDIJ:  cpu time      0.0145: real time      0.0150
    TRIAL :  cpu time      6.7286: real time      6.8238
    CORREC:  cpu time      0.0039: real time      0.0039
    --------------------------------------------
      LOOP:  cpu time      6.9255: real time      7.0273

 eigenvalue-minimisations  : 43008
 total energy-change (2. order) : 0.1794400E+04  (-0.9216895E+04)
 number of electron     156.0000000 magnetization      45.0000000
 augmentation part      156.0000000 magnetization      45.0000000

 Free energy of the ion-electron system (eV)
  ---------------------------------------------------
  alpha Z        PSCENC =       989.47749747
  Ewald energy   TEWEN  =    -17512.95780513
  -Hartree energ DENC   =     -6292.37949771
  -exchange      EXHF   =         0.00000000
  -V(xc)+E(xc)   XCENC  =       668.17845831
  PAW double counting   =     20079.09431609   -20801.58653400
  entropy T*S    EENTRO =        -0.00019082
  eigenvalues    EBANDS =       360.47078555
  atomic energy  EATOM  =     24304.10294433
  ---------------------------------------------------
  free energy    TOTEN  =      1794.39997408 eV

  energy without entropy =     1794.40016490  energy(sigma->0) =     1794.40003769


--------------------------------------------------------------------------------------------------------




--------------------------------------- Iteration      1(   2)  ---------------------------------------


    TRIAL :  cpu time      6.6382: real time      6.6850
    CORREC:  cpu time      0.0024: real time      0.0025
    --------------------------------------------
      LOOP:  cpu time      6.6613: real time      6.7097

 eigenvalue-minimisations  : 43008
 total energy-change (2. order) :-0.1782210E+04  (-0.1681402E+04)
 number of electron     156.0000000 magnetization      45.0000000
 augmentation part      156.0000000 magnetization      45.0000000

 Free energy of the ion-electron system (eV)
  ---------------------------------------------------
  alpha Z        PSCENC =       989.47749747
  Ewald energy   TEWEN  =    -17512.95780513
  -Hartree energ DENC   =     -6292.37949771
  -exchange      EXHF   =         0.00000000
  -V(xc)+E(xc)   XCENC  =       668.17845831
  PAW double counting   =     20079.09431609   -20801.58653400
  entropy T*S    EENTRO =        -0.00040063
  eigenvalues    EBANDS =     -1421.73904860
  atomic energy  EATOM  =     24304.10294433
  ---------------------------------------------------
  free energy    TOTEN  =        12.18993013 eV

  energy without entropy =       12.19033075  energy(sigma->0) =       12.19006367


--------------------------------------------------------------------------------------------------------




--------------------------------------- Iteration      1(   3)  ---------------------------------------


    TRIAL :  cpu time      7.8682: real time      7.9241
    CORREC:  cpu time      0.0025: real time      0.0025
    --------------------------------------------
      LOOP:  cpu time      7.8879: real time      7.9485

 eigenvalue-minimisations  : 50752
 total energy-change (2. order) :-0.1091997E+03  (-0.1075191E+03)
 number of electron     156.0000000 magnetization      45.0000000
 augmentation part      156.0000000 magnetization      45.0000000

 Free energy of the ion-electron system (eV)
  ---------------------------------------------------
  alpha Z        PSCENC =       989.47749747
  Ewald energy   TEWEN  =    -17512.95780513
  -Hartree energ DENC   =     -6292.37949771
  -exchange      EXHF   =         0.00000000
  -V(xc)+E(xc)   XCENC  =       668.17845831
  PAW double counting   =     20079.09431609   -20801.58653400
  entropy T*S    EENTRO =         0.00104579
  eigenvalues    EBANDS =     -1530.94015458
  atomic energy  EATOM  =     24304.10294433
  ---------------------------------------------------
  free energy    TOTEN  =       -97.00972944 eV

  energy without entropy =      -97.01077523  energy(sigma->0) =      -97.01007804


--------------------------------------------------------------------------------------------------------




--------------------------------------- Iteration      1(   4)  ---------------------------------------


    TRIAL :  cpu time      7.0607: real time      7.1092
    CORREC:  cpu time      0.0025: real time      0.0025
    --------------------------------------------
      LOOP:  cpu time      7.0843: real time      7.1331

 eigenvalue-minimisations  : 45728
 total energy-change (2. order) :-0.1676353E+01  (-0.1675980E+01)
 number of electron     156.0000000 magnetization      45.0000000
 augmentation part      156.0000000 magnetization      45.0000000

 Free energy of the ion-electron system (eV)
  ---------------------------------------------------
  alpha Z        PSCENC =       989.47749747
  Ewald energy   TEWEN  =    -17512.95780513
  -Hartree energ DENC   =     -6292.37949771
  -exchange      EXHF   =         0.00000000
  -V(xc)+E(xc)   XCENC  =       668.17845831
  PAW double counting   =     20079.09431609   -20801.58653400
  entropy T*S    EENTRO =         0.00100347
  eigenvalues    EBANDS =     -1532.61646494
  atomic energy  EATOM  =     24304.10294433
  ---------------------------------------------------
  free energy    TOTEN  =       -98.68608212 eV

  energy without entropy =      -98.68708559  energy(sigma->0) =      -98.68641661


--------------------------------------------------------------------------------------------------------




--------------------------------------- Iteration      1(   5)  ---------------------------------------


    TRIAL :  cpu time     13.5876: real time     13.8172
    CORREC:  cpu time      0.0029: real time      0.0029
    CHARGE:  cpu time      0.2366: real time      0.2414
    --------------------------------------------
      LOOP:  cpu time     13.8434: real time     14.0824

 eigenvalue-minimisations  : 52832
 total energy-change (2. order) :-0.3572669E-01  (-0.3572572E-01)
 number of electron     155.9999720 magnetization      31.5736034
 augmentation part       79.7491526 magnetization      22.2639608

 Free energy of the ion-electron system (eV)
  ---------------------------------------------------
  alpha Z        PSCENC =       989.47749747
  Ewald energy   TEWEN  =    -17512.95780513
  -Hartree energ DENC   =     -6292.37949771
  -exchange      EXHF   =         0.00000000
  -V(xc)+E(xc)   XCENC  =       668.17845831
  PAW double counting   =     20079.09431609   -20801.58653400
  entropy T*S    EENTRO =         0.00100286
  eigenvalues    EBANDS =     -1532.65219102
  atomic energy  EATOM  =     24304.10294433
  ---------------------------------------------------
  free energy    TOTEN  =       -98.72180881 eV

  energy without entropy =      -98.72281167  energy(sigma->0) =      -98.72214309


--------------------------------------------------------------------------------------------------------




--------------------------------------- Iteration      1(   6)  ---------------------------------------


    POTLOK:  cpu time      0.0295: real time      0.0297
    SETDIJ:  cpu time      0.0134: real time      0.0135
    TRIAL :  cpu time      7.1071: real time      7.1548
    CORREC:  cpu time      1.3152: real time      1.3280
    CHARGE:  cpu time      0.2113: real time      0.2126
    --------------------------------------------
      LOOP:  cpu time      8.6884: real time      8.7543

 eigenvalue-minimisations  :     0
 total energy-change (2. order) : 0.4751996E+02  (-0.3269312E+02)
 number of electron     155.9999706 magnetization      30.4705936
 augmentation part       83.8687643 magnetization      22.5409527

 Free energy of the ion-electron system (eV)
  ---------------------------------------------------
  alpha Z        PSCENC =       989.47749747
  Ewald energy   TEWEN  =    -17512.95780513
  -Hartree energ DENC   =     -5120.64461648
  -exchange      EXHF   =         0.00000000
  -V(xc)+E(xc)   XCENC  =       612.88138770
  PAW double counting   =     20713.27600326   -21385.84698933
  entropy T*S    EENTRO =         0.00288497
  eigenvalues    EBANDS =     -2651.49127214
  atomic energy  EATOM  =     24304.10294433
  ---------------------------------------------------
  free energy    TOTEN  =       -51.20184748 eV

  energy without entropy =      -51.20473245  energy(sigma->0) =      -51.20280913


--------------------------------------------------------------------------------------------------------




--------------------------------------- Iteration      1(   7)  ---------------------------------------


    POTLOK:  cpu time      0.0266: real time      0.0269
    SETDIJ:  cpu time      0.0082: real time      0.0083
    TRIAL :  cpu time      4.9017: real time      4.9492
    CORREC:  cpu time      1.5635: real time      1.6027
    CHARGE:  cpu time      0.2498: real time      0.2514
    --------------------------------------------
      LOOP:  cpu time      6.7665: real time      6.8610

 eigenvalue-minimisations  :     0
 total energy-change (2. order) :-0.3392106E+02  (-0.4906329E+01)
 number of electron     155.9999704 magnetization      29.6097313
 augmentation part       84.6872208 magnetization      22.1878942

 Free energy of the ion-electron system (eV)
  ---------------------------------------------------
  alpha Z        PSCENC =       989.47749747
  Ewald energy   TEWEN  =    -17512.95780513
  -Hartree energ DENC   =     -5734.58734515
  -exchange      EXHF   =         0.00000000
  -V(xc)+E(xc)   XCENC  =       637.01921965
  PAW double counting   =     21856.42477458   -22647.83943475
  entropy T*S    EENTRO =        -0.00667795
  eigenvalues    EBANDS =     -1976.76564719
  atomic energy  EATOM  =     24304.10294433
  ---------------------------------------------------
  free energy    TOTEN  =       -85.12291123 eV

  energy without entropy =      -85.11623329  energy(sigma->0) =      -85.12068525


--------------------------------------------------------------------------------------------------------




--------------------------------------- Iteration      1(   8)  ---------------------------------------


    POTLOK:  cpu time      0.0281: real time      0.0283
    SETDIJ:  cpu time      0.0302: real time      0.0304
    TRIAL :  cpu time     11.3353: real time     11.4055
    CORREC:  cpu time      2.0051: real time      2.0438
    CHARGE:  cpu time      0.3141: real time      0.3159
    --------------------------------------------
      LOOP:  cpu time     13.7329: real time     13.8503

 eigenvalue-minimisations  :     0
 total energy-change (2. order) :-0.4905956E+01  (-0.1740865E+01)
 number of electron     155.9999705 magnetization      28.9271818
 augmentation part       84.8404077 magnetization      21.6768406

 Free energy of the ion-electron system (eV)
  ---------------------------------------------------
  alpha Z        PSCENC =       989.47749747
  Ewald energy   TEWEN  =    -17512.95780513
  -Hartree energ DENC   =     -5895.96018668
  -exchange      EXHF   =         0.00000000
  -V(xc)+E(xc)   XCENC  =       642.43174694
  PAW double counting   =     22156.02385568   -22941.35271729
  entropy T*S    EENTRO =        -0.00269765
  eigenvalues    EBANDS =     -1831.78752454
  atomic energy  EATOM  =     24304.10294433
  ---------------------------------------------------
  free energy    TOTEN  =       -90.02886716 eV

  energy without entropy =      -90.02616951  energy(sigma->0) =      -90.02796795


--------------------------------------------------------------------------------------------------------




--------------------------------------- Iteration      1(   9)  ---------------------------------------


    POTLOK:  cpu time      0.0254: real time      0.0258
    SETDIJ:  cpu time      0.0603: real time      0.0606
    TRIAL :  cpu time      3.8291: real time      3.8619
    CORREC:  cpu time      1.3145: real time      1.3279
    CHARGE:  cpu time      0.2049: real time      0.2062
    --------------------------------------------
      LOOP:  cpu time      5.4597: real time      5.5097

 eigenvalue-minimisations  :     0
 total energy-change (2. order) :-0.1729305E+01  (-0.2899632E+00)
 number of electron     155.9999705 magnetization      28.6665588
 augmentation part       84.9673657 magnetization      21.4975532

 Free energy of the ion-electron system (eV)
  ---------------------------------------------------
  alpha Z        PSCENC =       989.47749747
  Ewald energy   TEWEN  =    -17512.95780513
  -Hartree energ DENC   =     -5896.22902376
  -exchange      EXHF   =         0.00000000
  -V(xc)+E(xc)   XCENC  =       642.00525273
  PAW double counting   =     21925.34495340   -22687.42432065
  entropy T*S    EENTRO =        -0.00510578
  eigenvalues    EBANDS =     -1856.07497304
  atomic energy  EATOM  =     24304.10294433
  ---------------------------------------------------
  free energy    TOTEN  =       -91.75817231 eV

  energy without entropy =      -91.75306653  energy(sigma->0) =      -91.75647039


--------------------------------------------------------------------------------------------------------




--------------------------------------- Iteration      1(  10)  ---------------------------------------


    POTLOK:  cpu time      0.0267: real time      0.0269
    SETDIJ:  cpu time      0.0083: real time      0.0084
    TRIAL :  cpu time      3.3901: real time      3.4224
    CORREC:  cpu time      1.2065: real time      1.2189
    CHARGE:  cpu time      0.2038: real time      0.2050
    --------------------------------------------
      LOOP:  cpu time      4.8571: real time      4.9035

 eigenvalue-minimisations  :     0
 total energy-change (2. order) :-0.2965265E+00  (-0.3784759E+00)
 number of electron     155.9999704 magnetization      28.2063976
 augmentation part       85.1563819 magnetization      21.1959243

 Free energy of the ion-electron system (eV)
  ---------------------------------------------------
  alpha Z        PSCENC =       989.47749747
  Ewald energy   TEWEN  =    -17512.95780513
  -Hartree energ DENC   =     -5915.51035747
  -exchange      EXHF   =         0.00000000
  -V(xc)+E(xc)   XCENC  =       642.51973931
  PAW double counting   =     21892.47012083   -22654.52476463
  entropy T*S    EENTRO =        -0.00876752
  eigenvalues    EBANDS =     -1837.62696776
  atomic energy  EATOM  =     24304.10294433
  ---------------------------------------------------
  free energy    TOTEN  =       -92.05469884 eV

  energy without entropy =      -92.04593132  energy(sigma->0) =      -92.05177633


--------------------------------------------------------------------------------------------------------




--------------------------------------- Iteration      1(  11)  ---------------------------------------


    POTLOK:  cpu time      0.0262: real time      0.0264
    SETDIJ:  cpu time      0.0074: real time      0.0075
    TRIAL :  cpu time      3.3024: real time      3.3326
    CORREC:  cpu time      1.2176: real time      1.2295
    CHARGE:  cpu time      0.2007: real time      0.2020
    --------------------------------------------
      LOOP:  cpu time      4.7726: real time      4.8202

 eigenvalue-minimisations  :     0
 total energy-change (2. order) :-0.4133716E+00  (-0.1420435E+00)
 number of electron     155.9999704 magnetization      27.8689166
 augmentation part       85.1138748 magnetization      20.9759624

 Free energy of the ion-electron system (eV)
  ---------------------------------------------------
  alpha Z        PSCENC =       989.47749747
  Ewald energy   TEWEN  =    -17512.95780513
  -Hartree energ DENC   =     -5946.62377440
  -exchange      EXHF   =         0.00000000
  -V(xc)+E(xc)   XCENC  =       643.32814963
  PAW double counting   =     21847.72205370   -22610.97115473
  entropy T*S    EENTRO =        -0.01339083
  eigenvalues    EBANDS =     -1806.53721377
  atomic energy  EATOM  =     24304.10294433
  ---------------------------------------------------
  free energy    TOTEN  =       -92.46807043 eV

  energy without entropy =      -92.45467960  energy(sigma->0) =      -92.46360682


--------------------------------------------------------------------------------------------------------




--------------------------------------- Iteration      1(  12)  ---------------------------------------


    POTLOK:  cpu time      0.0259: real time      0.0261
    SETDIJ:  cpu time      0.0084: real time      0.0085
    TRIAL :  cpu time      6.8797: real time      6.9283
    CORREC:  cpu time      1.6664: real time      1.6836
    CHARGE:  cpu time      0.4834: real time      0.4873
    --------------------------------------------
      LOOP:  cpu time      9.0817: real time      9.1563

 eigenvalue-minimisations  :     0
 total energy-change (2. order) :-0.1420073E+00  (-0.4357690E-01)
 number of electron     155.9999704 magnetization      27.7288534
 augmentation part       85.0946062 magnetization      20.8891141

 Free energy of the ion-electron system (eV)
  ---------------------------------------------------
  alpha Z        PSCENC =       989.47749747
  Ewald energy   TEWEN  =    -17512.95780513
  -Hartree energ DENC   =     -5943.45528092
  -exchange      EXHF   =         0.00000000
  -V(xc)+E(xc)   XCENC  =       642.95392665
  PAW double counting   =     21774.73999224   -22535.92367688
  entropy T*S    EENTRO =        -0.01531287
  eigenvalues    EBANDS =     -1811.53428464
  atomic energy  EATOM  =     24304.10294433
  ---------------------------------------------------
  free energy    TOTEN  =       -92.61007771 eV

  energy without entropy =      -92.59476484  energy(sigma->0) =      -92.60497342


--------------------------------------------------------------------------------------------------------




--------------------------------------- Iteration      1(  13)  ---------------------------------------


    POTLOK:  cpu time      0.0859: real time      0.0864
    SETDIJ:  cpu time      0.0037: real time      0.0038
    TRIAL :  cpu time      3.2660: real time      3.2989
    CORREC:  cpu time      1.2840: real time      1.2968
    CHARGE:  cpu time      0.1998: real time      0.2010
    --------------------------------------------
      LOOP:  cpu time      4.9860: real time      5.0343

 eigenvalue-minimisations  :     0
 total energy-change (2. order) :-0.4384461E-01  (-0.5521604E-01)
 number of electron     155.9999705 magnetization      27.5026776
 augmentation part       85.0757886 magnetization      20.7605002

 Free energy of the ion-electron system (eV)
  ---------------------------------------------------
  alpha Z        PSCENC =       989.47749747
  Ewald energy   TEWEN  =    -17512.95780513
  -Hartree energ DENC   =     -5941.00408734
  -exchange      EXHF   =         0.00000000
  -V(xc)+E(xc)   XCENC  =       642.77406274
  PAW double counting   =     21747.00112261   -22507.31119853
  entropy T*S    EENTRO =        -0.01769533
  eigenvalues    EBANDS =     -1814.72114559
  atomic energy  EATOM  =     24304.10294433
  ---------------------------------------------------
  free energy    TOTEN  =       -92.65392232 eV

  energy without entropy =      -92.63622699  energy(sigma->0) =      -92.64802388


--------------------------------------------------------------------------------------------------------




--------------------------------------- Iteration      1(  14)  ---------------------------------------


    POTLOK:  cpu time      0.0251: real time      0.0253
    SETDIJ:  cpu time      0.0089: real time      0.0089
    TRIAL :  cpu time      3.2897: real time      3.3216
    CORREC:  cpu time      1.2298: real time      1.2424
    CHARGE:  cpu time      0.1985: real time      0.1998
    --------------------------------------------
      LOOP:  cpu time      4.7695: real time      4.8211

 eigenvalue-minimisations  :     0
 total energy-change (2. order) :-0.5532933E-01  (-0.2588858E-01)
 number of electron     155.9999705 magnetization      27.3470449
 augmentation part       85.0996693 magnetization      20.6860107

 Free energy of the ion-electron system (eV)
  ---------------------------------------------------
  alpha Z        PSCENC =       989.47749747
  Ewald energy   TEWEN  =    -17512.95780513
  -Hartree energ DENC   =     -5936.63168714
  -exchange      EXHF   =         0.00000000
  -V(xc)+E(xc)   XCENC  =       642.51193003
  PAW double counting   =     21709.94038389   -22469.12208434
  entropy T*S    EENTRO =        -0.01852370
  eigenvalues    EBANDS =     -1820.01273542
  atomic energy  EATOM  =     24304.10294433
  ---------------------------------------------------
  free energy    TOTEN  =       -92.70925165 eV

  energy without entropy =      -92.69072795  energy(sigma->0) =      -92.70307709


--------------------------------------------------------------------------------------------------------




--------------------------------------- Iteration      1(  15)  ---------------------------------------


    POTLOK:  cpu time      0.0257: real time      0.0259
    SETDIJ:  cpu time      0.0078: real time      0.0078
    TRIAL :  cpu time      3.2932: real time      3.3253
    CORREC:  cpu time      1.3141: real time      1.3280
    CHARGE:  cpu time      0.1994: real time      0.2007
    --------------------------------------------
      LOOP:  cpu time      4.8568: real time      4.9099

 eigenvalue-minimisations  :     0
 total energy-change (2. order) :-0.2584034E-01  (-0.3726003E-01)
 number of electron     155.9999705 magnetization      27.1173467
 augmentation part       85.1443133 magnetization      20.5791594

 Free energy of the ion-electron system (eV)
  ---------------------------------------------------
  alpha Z        PSCENC =       989.47749747
  Ewald energy   TEWEN  =    -17512.95780513
  -Hartree energ DENC   =     -5937.71823354
  -exchange      EXHF   =         0.00000000
  -V(xc)+E(xc)   XCENC  =       642.52035511
  PAW double counting   =     21702.69792168   -22462.08342799
  entropy T*S    EENTRO =        -0.01849954
  eigenvalues    EBANDS =     -1818.75582021
  atomic energy  EATOM  =     24304.10294433
  ---------------------------------------------------
  free energy    TOTEN  =       -92.73509199 eV

  energy without entropy =      -92.71659245  energy(sigma->0) =      -92.72892548


--------------------------------------------------------------------------------------------------------




--------------------------------------- Iteration      1(  16)  ---------------------------------------


    POTLOK:  cpu time      0.0261: real time      0.0263
    SETDIJ:  cpu time      0.0085: real time      0.0085
    TRIAL :  cpu time      3.2686: real time      3.3005
    CORREC:  cpu time      1.2069: real time      1.2197
    CHARGE:  cpu time      0.2053: real time      0.2065
    --------------------------------------------
      LOOP:  cpu time      4.7378: real time      4.7841

 eigenvalue-minimisations  :     0
 total energy-change (2. order) :-0.3674565E-01  (-0.1150794E-01)
 number of electron     155.9999705 magnetization      27.0099741
 augmentation part       85.1563075 magnetization      20.5269176

 Free energy of the ion-electron system (eV)
  ---------------------------------------------------
  alpha Z        PSCENC =       989.47749747
  Ewald energy   TEWEN  =    -17512.95780513
  -Hartree energ DENC   =     -5940.69524137
  -exchange      EXHF   =         0.00000000
  -V(xc)+E(xc)   XCENC  =       642.58929255
  PAW double counting   =     21698.48562738   -22458.47263406
  entropy T*S    EENTRO =        -0.01825928
  eigenvalues    EBANDS =     -1815.28301927
  atomic energy  EATOM  =     24304.10294433
  ---------------------------------------------------
  free energy    TOTEN  =       -92.77183764 eV

  energy without entropy =      -92.75357836  energy(sigma->0) =      -92.76575121


--------------------------------------------------------------------------------------------------------




--------------------------------------- Iteration      1(  17)  ---------------------------------------


    POTLOK:  cpu time      0.0263: real time      0.0265
    SETDIJ:  cpu time      0.0081: real time      0.0082
    TRIAL :  cpu time      3.3395: real time      3.3708
    CORREC:  cpu time      1.3111: real time      1.3248
    CHARGE:  cpu time      0.1987: real time      0.2000
    --------------------------------------------
      LOOP:  cpu time      4.9009: real time      4.9526

 eigenvalue-minimisations  :     0
 total energy-change (2. order) :-0.1150715E-01  (-0.8320990E-02)
 number of electron     155.9999705 magnetization      26.9303113
 augmentation part       85.1585782 magnetization      20.4861825

 Free energy of the ion-electron system (eV)
[...]
     66       8.2416      1.03546
     67       8.4877      0.49886
     68       8.4899      0.48925
     69       8.4976      0.45676
     70       8.6827     -0.02254
     71       8.6827     -0.02256
     72       8.7110     -0.03346
     73       8.7112     -0.03347
     74       8.9265     -0.00403
     75       8.9268     -0.00403
     76       9.5999     -0.00000
     77       9.6009     -0.00000
     78       9.6948     -0.00000
     79       9.6948     -0.00000
     80       9.7154     -0.00000
     81       9.7162     -0.00000
     82       9.9170     -0.00000
     83       9.9177     -0.00000
     84      10.0841     -0.00000
     85      10.1204     -0.00000
     86      10.2180     -0.00000
     87      10.2282     -0.00000
     88      10.2801     -0.00000
     89      10.3639     -0.00000
     90      10.4033     -0.00000
     91      10.4108     -0.00000
     92      10.7304     -0.00000
     93      10.7314     -0.00000
     94      11.0742     -0.00000
     95      11.0751     -0.00000
     96      11.1547     -0.00000
     97      11.1561     -0.00000
     98      11.5420     -0.00000
     99      11.5431     -0.00000
    100      13.5878      0.00000
    101      15.2500      0.00000
    102      15.3138      0.00000
    103      15.3593      0.00000
    104      16.2735      0.00000
    105      16.2743      0.00000
    106      16.9093      0.00000
    107      16.9097      0.00000
    108      17.4506      0.00000
    109      17.4508      0.00000
    110      17.9270      0.00000
    111      17.9270      0.00000
    112      22.1800      0.00000
    113      22.1805      0.00000
    114      22.7186      0.00000
    115      22.7188      0.00000
    116      22.9813      0.00000
    117      22.9815      0.00000
    118      23.7714      0.00000
    119      23.7715      0.00000
    120      25.4762      0.00000
    121      25.4798      0.00000
    122      25.5385      0.00000
    123      25.8161      0.00000
    124      26.4117      0.00000
    125      26.4122      0.00000
    126      26.8567      0.00000
    127      26.8691      0.00000
    128      27.3465      0.00000


--------------------------------------------------------------------------------------------------------


 soft charge-density along one line, spin component           1
         0         1         2         3         4         5         6         7         8         9
 total charge-density along one line
 
 soft charge-density along one line, spin component           2
         0         1         2         3         4         5         6         7         8         9
 total charge-density along one line
 
 pseudopotential strength for first ion, spin component:           1
-46.201   0.000  -0.000   8.119  -0.000   0.000   0.000  -0.000
  0.000 -46.201  -0.000  -0.000   8.119   0.000  -0.000   0.000
 -0.000  -0.000 -46.081   0.000   0.000   8.069   0.000  -0.000
  8.119  -0.000   0.000   5.517  -0.000   0.000  -0.000   0.000
 -0.000   8.119   0.000  -0.000   5.517   0.000   0.000  -0.000
  0.000   0.000   8.069   0.000   0.000   5.527  -0.000   0.000
  0.000  -0.000   0.000  -0.000   0.000  -0.000  -3.048  -0.000
 -0.000   0.000  -0.000   0.000  -0.000   0.000  -0.000  -3.125
 -0.000  -0.000  -0.000   0.000   0.000   0.000   0.000   0.000
 -0.000   0.000  -0.000   0.000  -0.000   0.000   0.000  -0.000
 -0.000   0.000   0.000   0.000  -0.000  -0.000  -0.000  -0.000
  0.000  -0.000   0.000  -0.000   0.000  -0.000  -3.547  -0.000
 -0.000   0.000  -0.000   0.000  -0.000   0.000  -0.000  -3.622
 -0.000  -0.000  -0.000   0.000   0.000   0.000   0.000   0.000
 -0.000   0.000  -0.000   0.000  -0.000   0.000   0.000  -0.000
 -0.000   0.000   0.000   0.000  -0.000  -0.000  -0.000  -0.000
 -0.000   0.000  -0.000  -0.000  -0.000  -0.000   0.000  -0.000
 -0.000   0.000  -0.000  -0.000   0.000  -0.000   0.000  -0.000
 pseudopotential strength for first ion, spin component:           2
-43.703   0.000  -0.000   7.070  -0.000   0.000   0.000  -0.000
  0.000 -43.704  -0.000  -0.000   7.070   0.000  -0.000   0.000
 -0.000  -0.000 -43.664   0.000   0.000   7.053   0.000  -0.000
  7.070  -0.000   0.000   5.817  -0.000   0.000  -0.000   0.000
 -0.000   7.070   0.000  -0.000   5.817   0.000   0.000  -0.000
  0.000   0.000   7.053   0.000   0.000   5.822  -0.000   0.000
  0.000  -0.000   0.000  -0.000   0.000  -0.000  -1.066  -0.000
 -0.000   0.000  -0.000   0.000  -0.000   0.000  -0.000  -1.090
 -0.000  -0.000  -0.000   0.000   0.000   0.000   0.000   0.000
 -0.000   0.000  -0.000   0.000  -0.000   0.000   0.000  -0.000
 -0.000   0.000   0.000   0.000   0.000  -0.000  -0.000  -0.000
  0.000  -0.000   0.000  -0.000   0.000  -0.000  -1.596  -0.000
 -0.000   0.000  -0.000   0.000  -0.000   0.000  -0.000  -1.620
 -0.000  -0.000  -0.000   0.000   0.000   0.000   0.000   0.000
 -0.000   0.000  -0.000   0.000  -0.000   0.000   0.000  -0.000
 -0.000   0.000   0.000   0.000   0.000  -0.000  -0.000  -0.000
 -0.000   0.000  -0.000  -0.000   0.000  -0.000   0.000  -0.000
 -0.000   0.000  -0.000  -0.000   0.000  -0.000   0.000  -0.000
 total augmentation occupancy for first ion, spin component:           1
  1.992   0.000   0.000  -0.028   0.000  -0.000  -0.000   0.000   0.000   0.000   0.000  -0.000  -0.000  -0.000   0.000  -0.000
  0.000   1.992   0.000  -0.000  -0.028  -0.000   0.000   0.000   0.000   0.000   0.000  -0.000  -0.000  -0.000   0.000  -0.000
  0.000   0.000   1.992  -0.000  -0.000  -0.028   0.000   0.000   0.000   0.000  -0.000   0.000   0.000  -0.000  -0.000   0.000
 -0.028  -0.000  -0.000   0.155   0.000   0.000   0.000  -0.000   0.000   0.000   0.000  -0.000   0.000   0.000   0.000   0.000
  0.000  -0.028  -0.000   0.000   0.155  -0.000   0.000  -0.000  -0.000   0.000   0.000   0.000   0.000   0.000  -0.000  -0.000
 -0.000  -0.000  -0.028   0.000  -0.000   0.138   0.000   0.000  -0.000  -0.000  -0.000   0.000   0.000   0.000   0.000  -0.000
 -0.000   0.000   0.000   0.000   0.000   0.000   2.982   0.000  -0.000  -0.000  -0.000  -1.520   0.000  -0.000   0.000   0.000
  0.000   0.000   0.000  -0.000  -0.000   0.000   0.000   3.210  -0.000   0.000   0.000   0.000  -1.939   0.000   0.000   0.000
  0.000   0.000   0.000   0.000  -0.000  -0.000  -0.000  -0.000   3.351  -0.000   0.177   0.000  -0.000  -1.812   0.000  -0.105
  0.000   0.000   0.000   0.000   0.000  -0.000  -0.000   0.000  -0.000   2.983   0.000  -0.000  -0.000   0.000  -1.521   0.000
  0.000   0.000  -0.000   0.000   0.000  -0.000  -0.000   0.000   0.177   0.000   3.150  -0.000   0.000  -0.105  -0.000  -1.693
 -0.000  -0.000   0.000  -0.000   0.000   0.000  -1.520   0.000   0.000  -0.000  -0.000   1.463   0.000   0.000   0.000   0.000
 -0.000  -0.000   0.000   0.000   0.000   0.000   0.000  -1.939  -0.000  -0.000   0.000   0.000   1.989   0.000   0.000   0.000
 -0.000  -0.000  -0.000   0.000   0.000   0.000  -0.000   0.000  -1.812   0.000  -0.105   0.000   0.000   1.525  -0.000   0.026
  0.000   0.000  -0.000   0.000  -0.000   0.000   0.000   0.000   0.000  -1.521  -0.000   0.000   0.000  -0.000   1.463   0.000
 -0.000  -0.000   0.000   0.000  -0.000  -0.000   0.000   0.000  -0.105   0.000  -1.693   0.000   0.000   0.026   0.000   1.497
  0.000  -0.000   0.000  -0.000   0.000   0.000   0.000   0.000  -0.092   0.000   0.161  -0.000   0.000   0.062   0.000  -0.108
  0.000   0.000  -0.000   0.000  -0.000   0.000   0.000   0.000   0.006   0.000  -0.010  -0.000  -0.000  -0.003   0.000   0.006
 total augmentation occupancy for first ion, spin component:           2
 -0.002   0.000   0.000  -0.010   0.000  -0.000   0.000   0.000  -0.000   0.000   0.000   0.000  -0.000   0.000   0.000   0.000
  0.000  -0.002  -0.000   0.000  -0.010   0.000   0.000  -0.000   0.000   0.000  -0.000   0.000  -0.000  -0.000   0.000   0.000
  0.000  -0.000  -0.002  -0.000   0.000  -0.010   0.000   0.000   0.000   0.000  -0.000   0.000   0.000  -0.000  -0.000   0.000
 -0.010   0.000  -0.000  -0.004   0.000   0.000   0.000  -0.000   0.000   0.000  -0.000   0.000   0.000   0.000   0.000   0.000
  0.000  -0.010   0.000   0.000  -0.004   0.000   0.000   0.000   0.000   0.000   0.000   0.000   0.000   0.000   0.000   0.000
 -0.000   0.000  -0.010   0.000   0.000  -0.012   0.000   0.000   0.000  -0.000   0.000   0.000   0.000   0.000   0.000   0.000
  0.000   0.000   0.000   0.000   0.000   0.000   2.545   0.000   0.000   0.000   0.000  -1.123   0.000   0.000   0.000   0.000
  0.000  -0.000   0.000  -0.000   0.000   0.000   0.000   2.588   0.000   0.000   0.000  -0.000  -1.076   0.000   0.000   0.000
 -0.000   0.000   0.000   0.000   0.000   0.000   0.000   0.000   2.886   0.000   0.113   0.000   0.000  -1.240   0.000  -0.098
  0.000   0.000   0.000   0.000   0.000  -0.000   0.000   0.000   0.000   2.546  -0.000  -0.000   0.000   0.000  -1.124   0.000
  0.000  -0.000  -0.000  -0.000   0.000   0.000   0.000   0.000   0.113  -0.000   2.759  -0.000   0.000  -0.098   0.000  -1.129
  0.000   0.000   0.000   0.000   0.000   0.000  -1.123  -0.000   0.000  -0.000  -0.000   0.306  -0.000   0.000  -0.000  -0.000
 -0.000  -0.000   0.000   0.000   0.000   0.000   0.000  -1.076   0.000   0.000   0.000  -0.000   0.212   0.000   0.000   0.000
  0.000  -0.000  -0.000   0.000   0.000   0.000   0.000   0.000  -1.240   0.000  -0.098   0.000   0.000   0.414   0.000   0.111
  0.000   0.000  -0.000   0.000   0.000   0.000   0.000   0.000   0.000  -1.124   0.000  -0.000   0.000   0.000   0.307  -0.000
  0.000   0.000   0.000   0.000   0.000   0.000   0.000   0.000  -0.098   0.000  -1.129  -0.000   0.000   0.111  -0.000   0.287
  0.000   0.000   0.000   0.000   0.000   0.000   0.000  -0.000  -0.037   0.000   0.065  -0.000   0.000   0.036  -0.000  -0.064
  0.000  -0.000   0.000   0.000   0.000   0.000  -0.000   0.000   0.003   0.000  -0.005   0.000   0.000  -0.001  -0.000   0.001


------------------------ aborting loop because EDIFF is reached ----------------------------------------





 total charge

# of ion       s       p       d       tot
------------------------------------------
    1        0.323   6.275   5.966  12.563
    2        0.323   6.275   5.966  12.563
    3        0.323   6.275   5.966  12.563
    4        0.323   6.275   5.966  12.563
    5        0.323   6.275   5.966  12.563
    6        0.323   6.275   5.966  12.563
    7        0.323   6.275   5.966  12.563
    8        0.323   6.275   5.966  12.563
    9        0.323   6.275   5.966  12.563
   10        0.714   0.595   8.000   9.308
   11        0.714   0.595   8.000   9.309
   12        0.714   0.595   8.000   9.309
--------------------------------------------------
tot          5.045  58.256  77.691 140.992



 magnetization (x)

# of ion       s       p       d       tot
------------------------------------------
    1        0.001  -0.016   2.913   2.898
    2        0.001  -0.016   2.913   2.898
    3        0.001  -0.016   2.913   2.898
    4        0.001  -0.016   2.914   2.898
    5        0.001  -0.016   2.913   2.898
    6        0.001  -0.016   2.913   2.898
    7        0.001  -0.016   2.913   2.898
    8        0.001  -0.016   2.913   2.898
    9        0.001  -0.016   2.913   2.898
   10       -0.042  -0.095   0.436   0.299
   11       -0.042  -0.095   0.436   0.299
   12       -0.042  -0.095   0.436   0.299
--------------------------------------------------
tot         -0.118  -0.430  27.528  26.980
 
    FORLOC:  cpu time      0.0011: real time      0.0011
    FORNL :  cpu time      0.7980: real time      0.8019
    STRESS:  cpu time      4.9122: real time      4.9508
    FORCOR:  cpu time      0.0237: real time      0.0238
    OFIELD:  cpu time      0.0002: real time      0.0002

  FORCE on cell =-STRESS in cart. coord.  units (eV):
  Direction    XX          YY          ZZ          XY          YZ          ZX
  --------------------------------------------------------------------------------------
  Alpha Z   989.47750   989.47750   989.47750
  Ewald   -5837.65601 -5837.65601 -5837.66355     0.00000     0.00000    -0.00000
  Hartree  1980.32327  1980.32327  1980.29646    -0.00000    -0.00000    -0.00000
  E(xc)    -941.79514  -941.79514  -941.79467    -0.00000     0.00000    -0.00000
  Local     905.84104   905.84104   905.88627     0.00000     0.00000    -0.00000
  n-local  -230.24548  -246.00404  -238.10298    12.86726    -0.18895     0.12481
  augment  1441.59383  1441.59383  1441.57271    -0.00000     0.00000     0.00000
  Kinetic  1688.56379  1682.84159  1685.69635     1.79061     0.24996     1.17979
  Fock        0.00000     0.00000     0.00000     0.00000     0.00000     0.00000
  -------------------------------------------------------------------------------------
  Total     -14.63759   -14.63759   -14.63190     0.00000     0.00000    -0.00000
  in kB    -136.34896  -136.34896  -136.29595     0.00000     0.00000    -0.00000
  external pressure =     -136.33 kB  Pullay stress =        0.00 kB


 VOLUME and BASIS-vectors are now :
 -----------------------------------------------------------------------------
  energy-cutoff  :      520.00
  volume of cell :      172.00
      direct lattice vectors                 reciprocal lattice vectors
     3.855980337  0.000000000  0.000000000     0.259337422 -0.000000000  0.000000000
     0.000000000  3.855980337  0.000000000    -0.000000000  0.259337422  0.000000000
    -0.000000000 -0.000000000 11.568014538    -0.000000000 -0.000000000  0.086445258

  length of vectors
     3.855980337  3.855980337 11.568014538     0.259337422  0.259337422  0.086445258


 FORCES acting on ions:
    Electron-Ion                     Ewald-Force                    Non-Local-Force
 -----------------------------------------------------------------------------------------------
   0.128E-11 0.117E-10 0.492E+00   -.285E-13 0.249E-13 -.491E+00   0.266E-21 0.683E-21 -.436E-03
   0.966E-14 0.662E-12 0.363E-13   -.333E-13 -.112E-13 -.284E-12   -.161E-24 -.627E-24 -.356E-25
   0.725E-14 -.863E-12 -.492E+00   -.321E-13 0.966E-14 0.491E+00   0.112E-21 0.149E-20 0.436E-03
   0.648E-12 0.752E-11 -.482E-11   0.168E-13 -.907E-14 0.000E+00   0.246E-24 0.175E-24 0.390E-23
   0.642E-12 -.478E-11 0.424E+00   0.459E-13 0.137E-13 -.425E+00   0.175E-20 0.385E-22 0.217E-02
   0.657E-12 -.541E-11 -.424E+00   -.485E-13 0.754E-14 0.425E+00   -.733E-21 0.269E-21 -.217E-02
   0.633E-12 -.323E-13 0.492E+00   0.617E-13 -.769E-14 -.491E+00   0.977E-22 0.537E-21 -.436E-03
   0.644E-12 -.277E-13 0.975E-11   0.376E-13 -.166E-13 -.284E-12   -.979E-24 0.870E-25 0.149E-24
   0.646E-12 -.229E-13 -.492E+00   0.505E-13 -.831E-14 0.491E+00   -.438E-21 0.282E-21 0.436E-03
   -.822E-14 -.191E-13 0.165E-12   -.341E-13 -.375E-13 0.114E-12   -.706E-24 0.737E-24 -.196E-25
   0.134E-12 -.192E-13 0.262E+00   -.500E-13 -.142E-13 -.264E+00   -.640E-21 -.154E-21 0.978E-02
   -.108E-13 -.193E-13 -.262E+00   0.604E-13 0.770E-14 0.264E+00   0.621E-21 0.324E-21 -.978E-02
 -----------------------------------------------------------------------------------------------
   0.533E-11 0.877E-11 0.142E-10   0.464E-13 -.410E-13 0.361E-14   0.104E-20 0.347E-20 0.000E+00
 
 
 POSITION                                       TOTAL-FORCE (eV/Angst)
 -----------------------------------------------------------------------------------
      3.85598      1.92799      1.92824         0.000000      0.000000     -0.000065
     -0.00000      1.92799      5.78401        -0.000000     -0.000000     -0.000000
     -0.00000      1.92799      9.63978        -0.000000     -0.000000      0.000065
      1.92799      1.92799      0.00000         0.000000      0.000000     -0.000000
      1.92799      1.92799      3.85623        -0.000000     -0.000000      0.001795
      1.92799      1.92799      7.71178         0.000000      0.000000     -0.001795
      1.92799     -0.00000      1.92824         0.000000      0.000000     -0.000065
      1.92799     -0.00000      5.78401        -0.000000     -0.000000     -0.000000
      1.92799     -0.00000      9.63978        -0.000000     -0.000000      0.000065
      0.00000      0.00000      0.00000        -0.000000     -0.000000     -0.000000
      3.85598     -0.00000      3.85614        -0.000000     -0.000000      0.008180
     -0.00000     -0.00000      7.71188         0.000000      0.000000     -0.008180
 -----------------------------------------------------------------------------------
    total drift:                                0.000000      0.000000      0.000000


--------------------------------------------------------------------------------------------------------



  FREE ENERGIE OF THE ION-ELECTRON SYSTEM (eV)
  ---------------------------------------------------
  free  energy   TOTEN  =       -92.80949847 eV

  energy  without entropy=      -92.79330576  energy(sigma->0) =      -92.80410090
 
 d Force = 0.3086477E-05[-0.305E-05, 0.922E-05]  d Energy = 0.1036104E-05 0.205E-05
 d Force = 0.8210729E-03[ 0.581E-03, 0.106E-02]  d Ewald  = 0.8211211E-03-0.482E-07


--------------------------------------------------------------------------------------------------------


    POTLOK:  cpu time      0.1067: real time      0.1073


--------------------------------------------------------------------------------------------------------




--------------------------------------------------------------------------------------------------------


  
 reached required accuracy - stopping structural energy minimisation
     LOOP+:  cpu time     50.1751: real time     50.7246
    4ORBIT:  cpu time      0.0000: real time      0.0000



 total charge

# of ion       s       p       d       tot
------------------------------------------
    1        0.323   6.275   5.966  12.563
    2        0.323   6.275   5.966  12.563
    3        0.323   6.275   5.966  12.563
    4        0.323   6.275   5.966  12.563
    5        0.323   6.275   5.966  12.563
    6        0.323   6.275   5.966  12.563
    7        0.323   6.275   5.966  12.563
    8        0.323   6.275   5.966  12.563
    9        0.323   6.275   5.966  12.563
   10        0.714   0.595   8.000   9.308
   11        0.714   0.595   8.000   9.309
   12        0.714   0.595   8.000   9.309
--------------------------------------------------
tot          5.045  58.256  77.691 140.992



 magnetization (x)

# of ion       s       p       d       tot
------------------------------------------
    1        0.001  -0.016   2.913   2.898
    2        0.001  -0.016   2.913   2.898
    3        0.001  -0.016   2.913   2.898
    4        0.001  -0.016   2.914   2.898
    5        0.001  -0.016   2.913   2.898
    6        0.001  -0.016   2.913   2.898
    7        0.001  -0.016   2.913   2.898
    8        0.001  -0.016   2.913   2.898
    9        0.001  -0.016   2.913   2.898
   10       -0.042  -0.095   0.436   0.299
   11       -0.042  -0.095   0.436   0.299
   12       -0.042  -0.095   0.436   0.299
--------------------------------------------------
tot         -0.118  -0.430  27.528  26.980
 

 total amount of memory used by VASP MPI-rank0   311525. kBytes
=======================================================================

   base      :      30000. kBytes
   nonl-proj :     113922. kBytes
   fftplans  :       1055. kBytes
   grid      :       8252. kBytes
   one-center:        373. kBytes
   wavefun   :     157923. kBytes
 
  
  
 General timing and accounting informations for this job:
 ========================================================
  
                  Total CPU time used (sec):      338.234
                            User time (sec):      327.058
                          System time (sec):       11.176
                         Elapsed time (sec):      344.977
  
                   Maximum memory used (kb):     1218916.
                   Average memory used (kb):          N/A
  
                          Minor page faults:       211612
                          Major page faults:         1388
                 Voluntary context switches:        11405
