 vasp.6.4.3 19Mar24 (build Mar 26 2024 14:05:37) complex                        
  
 executed on             LinuxIFC date 2024.12.16  06:36:48
 running  128 mpi-ranks, on    1 nodes
 distrk:  each k-point on   32 cores,    4 groups
 distr:  one band on NCORE=   1 cores,   32 groups


--------------------------------------------------------------------------------------------------------


 INCAR:
   ALGO = Normal
   EDIFF = 1e-06
   EDIFFG = -0.01
   ENCUT = 520
   GGA = Pe
   IBRION = -1
   ISIF = 4
   ISMEAR = -5
   ISPIN = 2
   KPAR = 4
   LCHARG = True
   LORBIT = 11
   LREAL = False
   LWAVE = False
   MAGMOM = 9*2.898 3*0.299
   NELM = 200
   NSW = 0
   PREC = Accurate
   SIGMA = 0.2

 POTCAR:    PAW_PBE Fe_pv 02Aug2007               
 POTCAR:    PAW_PBE Pt 04Feb2005                  
 -----------------------------------------------------------------------------
|                                                                             |
|           W    W    AA    RRRRR   N    N  II  N    N   GGGG   !!!           |
|           W    W   A  A   R    R  NN   N  II  NN   N  G    G  !!!           |
|           W    W  A    A  R    R  N N  N  II  N N  N  G       !!!           |
|           W WW W  AAAAAA  RRRRR   N  N N  II  N  N N  G  GGG   !            |
|           WW  WW  A    A  R   R   N   NN  II  N   NN  G    G                |
|           W    W  A    A  R    R  N    N  II  N    N   GGGG   !!!           |
|                                                                             |
|     For optimal performance we recommend to set                             |
|       NCORE = 2 up to number-of-cores-per-socket                            |
|     NCORE specifies how many cores store one orbital (NPAR=cpu/NCORE).      |
|     This setting can greatly improve the performance of VASP for DFT.       |
|     The default, NCORE=1 might be grossly inefficient on modern             |
|     multi-core architectures or massively parallel machines. Do your        |
|     own testing! More info at https://www.vasp.at/wiki/index.php/NCORE      |
|     Unfortunately you need to use the default for GW and RPA                |
|     calculations (for HF NCORE is supported but not extensively tested      |
|     yet).                                                                   |
|                                                                             |
 -----------------------------------------------------------------------------

 POTCAR:    PAW_PBE Fe_pv 02Aug2007               
   SHA256 =  5d22e414b1f82158bf2c7ecb8b97b28fd0923e48cadc1c3bf74d524558f5dd32 Fe_pv/POTCAR          
   COPYR  = (c) Copyright 02Aug2007 Georg Kresse                                                    
   COPYR  = This file is part of the software VASP. Any use, copying, and all other rights are regul
   COPYR  = If you do not have a valid VASP license, you may not use, copy or distribute this file. 
   VRHFIN =Fe:  3pd7s1                                                                              
   LEXCH  = PE                                                                                      
   EATOM  =  2457.4239 eV,  180.6156 Ry                                                             
                                                                                                    
   TITEL  = PAW_PBE Fe_pv 02Aug2007                                                                 
   LULTRA =        F    use ultrasoft PP ?                                                          
   IUNSCR =        1    unscreen: 0-lin 1-nonlin 2-no                                               
   RPACOR =    1.750    partial core radius                                                         
   POMASS =   55.847; ZVAL   =   14.000    mass and valenz                                          
   RCORE  =    2.200    outmost cutoff radius                                                       
   RWIGS  =    2.200; RWIGS  =    1.164    wigner-seitz radius (au A)                               
   ENMAX  =  293.238; ENMIN  =  219.928 eV                                                          
   ICORE  =        3    local potential                                                             
   LCOR   =        T    correct aug charges                                                         
   LPAW   =        T    paw PP                                                                      
   EAUG   =  578.342                                                                                
   DEXC   =    0.000                                                                                
   RMAX   =    2.249    core radius for proj-oper                                                   
   RAUG   =    1.300    factor for augmentation sphere                                              
   RDEP   =    2.296    radius for radial grids                                                     
   RDEPT  =    1.766    core radius for aug-charge                                                  
                                                                                                    
   Atomic configuration                                                                             
    8 entries                                                                                       
     n  l   j            E        occ.                                                              
     1  0  0.50     -6993.8440   2.0000                                                             
     2  0  0.50      -814.6047   2.0000                                                             
     2  1  1.50      -693.3689   6.0000                                                             
     3  0  0.50       -89.4732   2.0000                                                             
     3  1  1.50       -55.6373   6.0000                                                             
     3  2  2.50        -3.8151   7.0000                                                             
     4  0  0.50        -4.2551   1.0000                                                             
     4  3  2.50        -1.3606   0.0000                                                             
   Description                                                                                      
     l       E           TYP  RCUT    TYP  RCUT                                                     
     1    -55.6372668     23  2.000                                                                 
     1     -5.4423304     23  2.000                                                                 
     2     -3.8151096     23  2.200                                                                 
     2     -5.1756922     23  2.200                                                                 
     0     -4.2550951     23  2.200                                                                 
     0     27.2116520     23  2.200                                                                 
     3     -1.3605826     23  2.200                                                                 
  local pseudopotential read in
  partial core-charges read in
  partial kinetic energy density read in
  atomic valenz-charges read in
  non local Contribution for L=           1  read in
    real space projection operators read in
  non local Contribution for L=           1  read in
    real space projection operators read in
  non local Contribution for L=           2  read in
    real space projection operators read in
  non local Contribution for L=           2  read in
    real space projection operators read in
  non local Contribution for L=           0  read in
    real space projection operators read in
  non local Contribution for L=           0  read in
    real space projection operators read in
    PAW grid and wavefunctions read in
 
   number of l-projection  operators is LMAX  =           6
   number of lm-projection operators is LMMAX =          18
 
 POTCAR:    PAW_PBE Pt 04Feb2005                  
   SHA256 =  3ed90460adef76debcff1cfb73ee1349b515b1a3db03439735b44de3a8db7dc8 Pt/POTCAR             
   COPYR  = (c) Copyright 04Feb2005 Georg Kresse                                                    
   COPYR  = This file is part of the software VASP. Any use, copying, and all other rights are regul
   COPYR  = If you do not have a valid VASP license, you may not use, copy or distribute this file. 
   VRHFIN =Pt: s1d9                                                                                 
   LEXCH  = PE                                                                                      
   EATOM  =   729.1176 eV,   53.5886 Ry                                                             
                                                                                                    
   TITEL  = PAW_PBE Pt 04Feb2005                                                                    
   LULTRA =        F    use ultrasoft PP ?                                                          
   IUNSCR =        1    unscreen: 0-lin 1-nonlin 2-no                                               
   RPACOR =    2.330    partial core radius                                                         
   POMASS =  195.080; ZVAL   =   10.000    mass and valenz                                          
   RCORE  =    2.600    outmost cutoff radius                                                       
   RWIGS  =    2.750; RWIGS  =    1.455    wigner-seitz radius (au A)                               
   ENMAX  =  230.283; ENMIN  =  172.712 eV                                                          
   ICORE  =        3    local potential                                                             
   LCOR   =        T    correct aug charges                                                         
   LPAW   =        T    paw PP                                                                      
   EAUG   =  358.966                                                                                
   DEXC   =    0.000                                                                                
   RMAX   =    2.658    core radius for proj-oper                                                   
   RAUG   =    1.300    factor for augmentation sphere                                              
   RDEP   =    2.761    radius for radial grids                                                     
   RDEPT  =    2.203    core radius for aug-charge                                                  
                                                                                                    
   Atomic configuration                                                                             
   16 entries                                                                                       
     n  l   j            E        occ.                                                              
     1  0  0.50    -78401.1885   2.0000                                                             
     2  0  0.50    -13770.7750   2.0000                                                             
     2  1  1.50    -11931.0468   6.0000                                                             
     3  0  0.50     -3234.7234   2.0000                                                             
     3  1  1.50     -2699.2216   6.0000                                                             
     3  2  2.50     -2119.5714  10.0000                                                             
     4  0  0.50      -695.1528   2.0000                                                             
     4  1  1.50      -519.6034   6.0000                                                             
     4  2  2.50      -306.6786  10.0000                                                             
     4  3  3.50       -70.1041  14.0000                                                             
     5  0  0.50      -101.7747   2.0000                                                             
     5  1  1.50       -55.9873   6.0000                                                             
     5  2  2.50        -6.1423   9.0000                                                             
     6  0  0.50        -5.6573   1.0000                                                             
     6  1  1.50        -6.8029   0.0000                                                             
     5  3  2.50        -1.3606   0.0000                                                             
   Description                                                                                      
     l       E           TYP  RCUT    TYP  RCUT                                                     
     2     -6.1423404     23  2.500                                                                 
     2     -7.5029230     23  2.500                                                                 
     0     -5.6573207     23  2.500                                                                 
     0      0.7416693     23  2.500                                                                 
     1     -2.7211652     23  2.600                                                                 
     1     20.4087390     23  2.600                                                                 
     3     -1.3605826     23  2.500                                                                 
  local pseudopotential read in
  partial core-charges read in
  partial kinetic energy density read in
  atomic valenz-charges read in
  non local Contribution for L=           2  read in
    real space projection operators read in
  non local Contribution for L=           2  read in
    real space projection operators read in
  non local Contribution for L=           0  read in
    real space projection operators read in
  non local Contribution for L=           0  read in
    real space projection operators read in
  non local Contribution for L=           1  read in
    real space projection operators read in
  non local Contribution for L=           1  read in
    real space projection operators read in
    PAW grid and wavefunctions read in
 
   number of l-projection  operators is LMAX  =           6
   number of lm-projection operators is LMMAX =          18
 
  PAW_PBE Fe_pv 02Aug2007               :
 energy of atom  1       EATOM=-2457.4239
 kinetic energy error for atom=    0.0062 (will be added to EATOM!!)
  PAW_PBE Pt 04Feb2005                  :
 energy of atom  2       EATOM= -729.1176
 kinetic energy error for atom=    0.0032 (will be added to EATOM!!)
 
 
 POSCAR: Fe9 Pt3
  positions in direct lattice
  velocities in cartesian coordinates


 exchange-correlation table for PE
   RHO(1)=    0.500       N(1)  =     2000
   RHO(2)=  100.500       N(2)  =     4000
 


--------------------------------------------------------------------------------------------------------


 ion  position               nearest neighbor table
   1  0.000  0.500  0.167-  11 2.73  11 2.73   7 2.73   7 2.73   7 2.73   7 2.73   5 2.73   5 2.73
                             4 2.73  10 2.73  10 2.73   4 2.73
   2  0.000  0.500  0.500-   5 2.73   6 2.73   5 2.73   6 2.73  11 2.73  12 2.73  11 2.73  12 2.73
                             8 2.73   8 2.73   8 2.73   8 2.73
   3  0.000  0.500  0.833-  12 2.73  12 2.73   9 2.73   9 2.73   9 2.73   9 2.73   6 2.73   6 2.73
                             4 2.73  10 2.73  10 2.73   4 2.73
   4  0.500  0.500  0.000-  10 2.73  10 2.73  10 2.73  10 2.73   1 2.73   7 2.73   9 2.73   3 2.73
                             1 2.73   3 2.73   7 2.73   9 2.73
   5  0.500  0.500  0.333-   2 2.73   8 2.73   8 2.73   2 2.73  11 2.73  11 2.73  11 2.73  11 2.73
                             1 2.73   7 2.73   1 2.73   7 2.73
   6  0.500  0.500  0.667-   2 2.73   8 2.73   8 2.73   2 2.73  12 2.73  12 2.73  12 2.73  12 2.73
                             9 2.73   3 2.73   9 2.73   3 2.73
   7  0.500  0.000  0.167-  11 2.73  11 2.73   1 2.73   1 2.73   1 2.73   1 2.73   5 2.73   5 2.73
                            10 2.73  10 2.73   4 2.73   4 2.73
   8  0.500  0.000  0.500-   5 2.73   6 2.73   5 2.73   6 2.73  11 2.73  12 2.73  11 2.73  12 2.73
                             2 2.73   2 2.73   2 2.73   2 2.73
   9  0.500  0.000  0.833-  12 2.73  12 2.73   3 2.73   3 2.73   3 2.73   3 2.73   6 2.73   6 2.73
                            10 2.73  10 2.73   4 2.73   4 2.73
  10  0.000  0.000  0.000-   4 2.73   4 2.73   4 2.73   4 2.73   9 2.73   1 2.73   3 2.73   3 2.73
                             1 2.73   7 2.73   9 2.73   7 2.73
  11  0.000  0.000  0.333-   2 2.73   8 2.73   2 2.73   8 2.73   1 2.73   7 2.73   7 2.73   1 2.73
                             5 2.73   5 2.73   5 2.73   5 2.73
  12  0.000  0.000  0.667-   2 2.73   8 2.73   2 2.73   8 2.73   3 2.73   3 2.73   9 2.73   9 2.73
                             6 2.73   6 2.73   6 2.73   6 2.73
 
  LATTYP: Found a simple tetragonal cell.
 ALAT       =     3.8559803367
 C/A-ratio  =     3.0000190685
  
  Lattice vectors:
  
 A1 = (   3.8559803367,   0.0000000000,   0.0000000000)
 A2 = (   0.0000000000,   3.8559803367,   0.0000000000)
 A3 = (   0.0000000000,   0.0000000000,  11.5680145380)


Analysis of symmetry for initial positions (statically):
=====================================================================
 Subroutine PRICEL returns:
 Original cell was already a primitive cell.
 

 Routine SETGRP: Setting up the symmetry group for a 
 simple tetragonal supercell.


 Subroutine GETGRP returns: Found 16 space group operations
 (whereof 16 operations were pure point group operations)
 out of a pool of 16 trial point group operations.


The static configuration has the point symmetry D_4h.


Analysis of symmetry for dynamics (positions and initial velocities):
=====================================================================
 Subroutine PRICEL returns:
 Original cell was already a primitive cell.
 

 Routine SETGRP: Setting up the symmetry group for a 
 simple tetragonal supercell.


 Subroutine GETGRP returns: Found 16 space group operations
 (whereof 16 operations were pure point group operations)
 out of a pool of 16 trial point group operations.


The dynamic configuration has the point symmetry D_4h.


Analysis of structural, dynamic, and magnetic symmetry:
=====================================================================
 Subroutine PRICEL returns:
 Original cell was already a primitive cell.
 

 Routine SETGRP: Setting up the symmetry group for a 
 simple tetragonal supercell.


 Subroutine GETGRP returns: Found 16 space group operations
 (whereof 16 operations were pure point group operations)
 out of a pool of 16 trial point group operations.


The overall configuration has the point symmetry D_4h.


 Subroutine INISYM returns: Found 16 space group operations
 (whereof 16 operations are pure point group operations),
 and found     1 'primitive' translations


----------------------------------------------------------------------------------------

                                     Primitive cell                                     

  volume of cell :     172.0000

  direct lattice vectors                    reciprocal lattice vectors
     3.855980337  0.000000000  0.000000000     0.259337422  0.000000000  0.000000000
     0.000000000  3.855980337  0.000000000     0.000000000  0.259337422  0.000000000
     0.000000000  0.000000000 11.568014538     0.000000000  0.000000000  0.086445258

  length of vectors
     3.855980337  3.855980337 11.568014538     0.259337422  0.259337422  0.086445258

  position of ions in fractional coordinates (direct lattice)
     0.000000000  0.500000000  0.166686884
     0.000000000  0.500000000  0.500000000
     0.000000000  0.500000000  0.833313116
     0.500000000  0.500000000  0.000000000
     0.500000000  0.500000000  0.333352809
     0.500000000  0.500000000  0.666647191
     0.500000000  0.000000000  0.166686884
     0.500000000  0.000000000  0.500000000
     0.500000000  0.000000000  0.833313116
     0.000000000  0.000000000  0.000000000
     0.000000000  0.000000000  0.333344599
     0.000000000  0.000000000  0.666655401

  ion indices of the primitive-cell ions
   primitive index   ion index
                 1           1
                 2           2
                 3           3
                 4           4
                 5           5
                 6           6
                 7           7
                 8           8
                 9           9
                10          10
                11          11
                12          12

----------------------------------------------------------------------------------------

 
 
 KPOINTS: pymatgen with grid density = 8800 / numb

Automatic generation of k-mesh.
 Grid dimensions read from file:
 generate k-points for:   13   13    4

 Generating k-lattice:

  Cartesian coordinates                     Fractional coordinates (reciprocal lattice)
     0.019949032  0.000000000  0.000000000     0.076923077  0.000000000  0.000000000
     0.000000000  0.019949032  0.000000000     0.000000000  0.076923077  0.000000000
     0.000000000  0.000000000  0.021611314     0.000000000  0.000000000  0.250000000

  Length of vectors
     0.019949032  0.019949032  0.021611314

  Shift w.r.t. Gamma in fractional coordinates (k-lattice)
     0.000000000  0.000000000  0.000000000

 TETIRR: Found   1010 inequivalent tetrahedra from     4056
 
 Subroutine IBZKPT returns following result:
 ===========================================
 
 Found     84 irreducible k-points:
 
 Following reciprocal coordinates:
            Coordinates               Weight
  0.000000  0.000000  0.000000      1.000000
  0.076923  0.000000  0.000000      4.000000
  0.153846  0.000000  0.000000      4.000000
  0.230769  0.000000  0.000000      4.000000
  0.307692  0.000000  0.000000      4.000000
  0.384615  0.000000  0.000000      4.000000
  0.461538  0.000000  0.000000      4.000000
  0.076923  0.076923  0.000000      4.000000
  0.153846  0.076923  0.000000      8.000000
  0.230769  0.076923  0.000000      8.000000
  0.307692  0.076923  0.000000      8.000000
  0.384615  0.076923  0.000000      8.000000
  0.461538  0.076923  0.000000      8.000000
  0.153846  0.153846  0.000000      4.000000
  0.230769  0.153846  0.000000      8.000000
  0.307692  0.153846  0.000000      8.000000
  0.384615  0.153846  0.000000      8.000000
  0.461538  0.153846  0.000000      8.000000
  0.230769  0.230769  0.000000      4.000000
  0.307692  0.230769  0.000000      8.000000
  0.384615  0.230769  0.000000      8.000000
  0.461538  0.230769  0.000000      8.000000
  0.307692  0.307692  0.000000      4.000000
  0.384615  0.307692  0.000000      8.000000
  0.461538  0.307692  0.000000      8.000000
  0.384615  0.384615  0.000000      4.000000
  0.461538  0.384615  0.000000      8.000000
  0.461538  0.461538  0.000000      4.000000
  0.000000  0.000000  0.250000      2.000000
  0.076923  0.000000  0.250000      8.000000
  0.153846  0.000000  0.250000      8.000000
  0.230769  0.000000  0.250000      8.000000
  0.307692  0.000000  0.250000      8.000000
  0.384615  0.000000  0.250000      8.000000
  0.461538  0.000000  0.250000      8.000000
  0.076923  0.076923  0.250000      8.000000
  0.153846  0.076923  0.250000     16.000000
  0.230769  0.076923  0.250000     16.000000
  0.307692  0.076923  0.250000     16.000000
  0.384615  0.076923  0.250000     16.000000
  0.461538  0.076923  0.250000     16.000000
  0.153846  0.153846  0.250000      8.000000
  0.230769  0.153846  0.250000     16.000000
  0.307692  0.153846  0.250000     16.000000
  0.384615  0.153846  0.250000     16.000000
  0.461538  0.153846  0.250000     16.000000
  0.230769  0.230769  0.250000      8.000000
  0.307692  0.230769  0.250000     16.000000
  0.384615  0.230769  0.250000     16.000000
  0.461538  0.230769  0.250000     16.000000
  0.307692  0.307692  0.250000      8.000000
  0.384615  0.307692  0.250000     16.000000
  0.461538  0.307692  0.250000     16.000000
  0.384615  0.384615  0.250000      8.000000
  0.461538  0.384615  0.250000     16.000000
  0.461538  0.461538  0.250000      8.000000
  0.000000  0.000000  0.500000      1.000000
  0.076923  0.000000  0.500000      4.000000
  0.153846  0.000000  0.500000      4.000000
  0.230769  0.000000  0.500000      4.000000
  0.307692  0.000000  0.500000      4.000000
  0.384615  0.000000  0.500000      4.000000
  0.461538  0.000000  0.500000      4.000000
  0.076923  0.076923  0.500000      4.000000
  0.153846  0.076923  0.500000      8.000000
  0.230769  0.076923  0.500000      8.000000
  0.307692  0.076923  0.500000      8.000000
  0.384615  0.076923  0.500000      8.000000
  0.461538  0.076923  0.500000      8.000000
  0.153846  0.153846  0.500000      4.000000
  0.230769  0.153846  0.500000      8.000000
  0.307692  0.153846  0.500000      8.000000
  0.384615  0.153846  0.500000      8.000000
  0.461538  0.153846  0.500000      8.000000
  0.230769  0.230769  0.500000      4.000000
  0.307692  0.230769  0.500000      8.000000
  0.384615  0.230769  0.500000      8.000000
  0.461538  0.230769  0.500000      8.000000
  0.307692  0.307692  0.500000      4.000000
  0.384615  0.307692  0.500000      8.000000
  0.461538  0.307692  0.500000      8.000000
  0.384615  0.384615  0.500000      4.000000
  0.461538  0.384615  0.500000      8.000000
  0.461538  0.461538  0.500000      4.000000
 
 Following cartesian coordinates:
            Coordinates               Weight
  0.000000  0.000000  0.000000      1.000000
  0.019949  0.000000  0.000000      4.000000
  0.039898  0.000000  0.000000      4.000000
  0.059847  0.000000  0.000000      4.000000
  0.079796  0.000000  0.000000      4.000000
  0.099745  0.000000  0.000000      4.000000
  0.119694  0.000000  0.000000      4.000000
  0.019949  0.019949  0.000000      4.000000
  0.039898  0.019949  0.000000      8.000000
  0.059847  0.019949  0.000000      8.000000
  0.079796  0.019949  0.000000      8.000000
  0.099745  0.019949  0.000000      8.000000
  0.119694  0.019949  0.000000      8.000000
  0.039898  0.039898  0.000000      4.000000
  0.059847  0.039898  0.000000      8.000000
  0.079796  0.039898  0.000000      8.000000
  0.099745  0.039898  0.000000      8.000000
  0.119694  0.039898  0.000000      8.000000
  0.059847  0.059847  0.000000      4.000000
  0.079796  0.059847  0.000000      8.000000
  0.099745  0.059847  0.000000      8.000000
  0.119694  0.059847  0.000000      8.000000
  0.079796  0.079796  0.000000      4.000000
  0.099745  0.079796  0.000000      8.000000
  0.119694  0.079796  0.000000      8.000000
  0.099745  0.099745  0.000000      4.000000
  0.119694  0.099745  0.000000      8.000000
  0.119694  0.119694  0.000000      4.000000
  0.000000  0.000000  0.021611      2.000000
  0.019949  0.000000  0.021611      8.000000
  0.039898  0.000000  0.021611      8.000000
  0.059847  0.000000  0.021611      8.000000
  0.079796  0.000000  0.021611      8.000000
  0.099745  0.000000  0.021611      8.000000
  0.119694  0.000000  0.021611      8.000000
  0.019949  0.019949  0.021611      8.000000
  0.039898  0.019949  0.021611     16.000000
  0.059847  0.019949  0.021611     16.000000
  0.079796  0.019949  0.021611     16.000000
  0.099745  0.019949  0.021611     16.000000
  0.119694  0.019949  0.021611     16.000000
  0.039898  0.039898  0.021611      8.000000
  0.059847  0.039898  0.021611     16.000000
  0.079796  0.039898  0.021611     16.000000
  0.099745  0.039898  0.021611     16.000000
  0.119694  0.039898  0.021611     16.000000
  0.059847  0.059847  0.021611      8.000000
  0.079796  0.059847  0.021611     16.000000
  0.099745  0.059847  0.021611     16.000000
  0.119694  0.059847  0.021611     16.000000
  0.079796  0.079796  0.021611      8.000000
  0.099745  0.079796  0.021611     16.000000
  0.119694  0.079796  0.021611     16.000000
  0.099745  0.099745  0.021611      8.000000
  0.119694  0.099745  0.021611     16.000000
  0.119694  0.119694  0.021611      8.000000
  0.000000  0.000000  0.043223      1.000000
  0.019949  0.000000  0.043223      4.000000
  0.039898  0.000000  0.043223      4.000000
  0.059847  0.000000  0.043223      4.000000
  0.079796  0.000000  0.043223      4.000000
  0.099745  0.000000  0.043223      4.000000
  0.119694  0.000000  0.043223      4.000000
  0.019949  0.019949  0.043223      4.000000
  0.039898  0.019949  0.043223      8.000000
  0.059847  0.019949  0.043223      8.000000
  0.079796  0.019949  0.043223      8.000000
  0.099745  0.019949  0.043223      8.000000
  0.119694  0.019949  0.043223      8.000000
  0.039898  0.039898  0.043223      4.000000
  0.059847  0.039898  0.043223      8.000000
  0.079796  0.039898  0.043223      8.000000
  0.099745  0.039898  0.043223      8.000000
  0.119694  0.039898  0.043223      8.000000
  0.059847  0.059847  0.043223      4.000000
  0.079796  0.059847  0.043223      8.000000
  0.099745  0.059847  0.043223      8.000000
  0.119694  0.059847  0.043223      8.000000
  0.079796  0.079796  0.043223      4.000000
  0.099745  0.079796  0.043223      8.000000
  0.119694  0.079796  0.043223      8.000000
  0.099745  0.099745  0.043223      4.000000
  0.119694  0.099745  0.043223      8.000000
  0.119694  0.119694  0.043223      4.000000
 


--------------------------------------------------------------------------------------------------------




 Dimension of arrays:
   k-points           NKPTS =     84   k-points in BZ     NKDIM =     84   number of bands    NBANDS=    128
   number of dos      NEDOS =    301   number of ions     NIONS =     12
   non local maximal  LDIM  =      6   non local SUM 2l+1 LMDIM =     18
   total plane-waves  NPLWV =  81000
   max r-space proj   IRMAX =      1   max aug-charges    IRDMAX=  28719
   dimension x,y,z NGX =    30 NGY =   30 NGZ =   90
   dimension x,y,z NGXF=    60 NGYF=   60 NGZF=  180
   support grid    NGXF=    60 NGYF=   60 NGZF=  180
   ions per type =               9   3
   NGX,Y,Z   is equivalent  to a cutoff of  12.93, 12.93, 12.93 a.u.
   NGXF,Y,Z  is equivalent  to a cutoff of  25.87, 25.87, 25.87 a.u.

 SYSTEM =  unknown system                          
 POSCAR =  Fe9 Pt3                                 

 Startparameter for this run:
   NWRITE =      2    write-flag & timer
   PREC   = accura    normal or accurate (medium, high low for compatibility)
   ISTART =      0    job   : 0-new  1-cont  2-samecut
   ICHARG =      2    charge: 1-file 2-atom 10-const
   ISPIN  =      2    spin polarized calculation?
   LNONCOLLINEAR =      F non collinear calculations
   LSORBIT =      F    spin-orbit coupling
   INIWAV =      1    electr: 0-lowe 1-rand  2-diag
   LASPH  =      F    aspherical Exc in radial PAW
 Electronic Relaxation 1
   ENCUT  =  520.0 eV  38.22 Ry    6.18 a.u.   7.17  7.17 21.51*2*pi/ulx,y,z
   ENINI  =  520.0     initial cutoff
   ENAUG  =  578.3 eV  augmentation charge cutoff
   NELM   =    200;   NELMIN=  2; NELMDL=  0     # of ELM steps 
   EDIFF  = 0.1E-05   stopping-criterion for ELM
   LREAL  =      F    real-space projection
   NLSPLINE    = F    spline interpolate recip. space projectors
   LCOMPAT=      F    compatible to vasp.4.4
   GGA_COMPAT  = T    GGA compatible to vasp.4.4-vasp.4.6
   LMAXPAW     = -100 max onsite density
   LMAXMIX     =    2 max onsite mixed and CHGCAR
   VOSKOWN=      0    Vosko Wilk Nusair interpolation
   ROPT   =    0.00000   0.00000
 Ionic relaxation
   EDIFFG = -.1E-01   stopping-criterion for IOM
   NSW    =      0    number of steps for IOM
   NBLOCK =      1;   KBLOCK =      1    inner block; outer block 
   IBRION =     -1    ionic relax: 0-MD 1-quasi-New 2-CG
   NFREE  =      0    steps in history (QN), initial steepest desc. (CG)
   ISIF   =      4    stress and relaxation
   IWAVPR =     10    prediction:  0-non 1-charg 2-wave 3-comb
   ISYM   =      2    0-nonsym 1-usesym 2-fastsym
   LCORR  =      T    Harris-Foulkes like correction to forces

   POTIM  = 0.5000    time-step for ionic-motion
   TEIN   =    0.0    initial temperature
   TEBEG  =    0.0;   TEEND  =   0.0 temperature during run
   SMASS  =  -3.00    Nose mass-parameter (am)
   estimated Nose-frequenzy (Omega)   =  0.10E-29 period in steps = 0.13E+47 mass=  -0.340E-27a.u.
   SCALEE = 1.0000    scale energy and forces
   NPACO  =    256;   APACO  = 10.0  distance and # of slots for P.C.
   PSTRESS=    0.0 pullay stress

  Mass of Ions in am
   POMASS =  55.85195.08
  Ionic Valenz
   ZVAL   =  14.00 10.00
  Atomic Wigner-Seitz radii
   RWIGS  =  -1.00 -1.00
  virtual crystal weights 
   VCA    =   1.00  1.00
   NELECT =     156.0000    total number of electrons
   NUPDOWN=      -1.0000    fix difference up-down

 DOS related values:
   EMIN   =  10.00;   EMAX   =-10.00  energy-range for DOS
   EFERMI =   0.00;   METHOD = LEGACY      
   ISMEAR =    -5;   SIGMA  =   0.20  broadening in eV -4-tet -1-fermi 0-gaus

 Electronic relaxation 2 (details)
   IALGO  =     38    algorithm
   LDIAG  =      T    sub-space diagonalisation (order eigenvalues)
   LSUBROT=      F    optimize rotation matrix (better conditioning)
   TURBO    =      0    0=normal 1=particle mesh
   IRESTART =      0    0=no restart 2=restart with 2 vectors
   NREBOOT  =      0    no. of reboots
   NMIN     =      0    reboot dimension
   EREF     =   0.00    reference energy to select bands
   IMIX   =      4    mixing-type and parameters
     AMIX     =   0.40;   BMIX     =  1.00
     AMIX_MAG =   1.60;   BMIX_MAG =  1.00
     AMIN     =   0.10
     WC   =   100.;   INIMIX=   1;  MIXPRE=   1;  MAXMIX= -45

 Intra band minimization:
   WEIMIN = 0.0000     energy-eigenvalue tresh-hold
   EBREAK =  0.20E-08  absolut break condition
   DEPER  =   0.30     relativ break condition  

   TIME   =   0.40     timestep for ELM

  volume/ion in A,a.u.               =      14.33        96.73
  Fermi-wavevector in a.u.,A,eV,Ry     =   1.584675  2.994602 34.166882  2.511195
  Thomas-Fermi vector in A             =   2.684256
 
 Write flags
   LWAVE        =      F    write WAVECAR
   LDOWNSAMPLE  =      F    k-point downsampling of WAVECAR
   LCHARG       =      T    write CHGCAR
   LVTOT        =      F    write LOCPOT, total local potential
   LVHAR        =      F    write LOCPOT, Hartree potential only
   WRT_POTENTIAL= false  ! write potential to hdf5 file
   LELF         =      F    write electronic localiz. function (ELF)
   LORBIT       =     11    0 simple, 1 ext, 2 COOP (PROOUT), +10 PAW based schemes


 Dipole corrections
   LMONO      =      F    monopole corrections only (constant potential shift)
   LDIPOL     =      F    correct potential (dipole corrections)
   IDIPOL     =      0    1-x, 2-y, 3-z, 4-all directions 
   EPSILON    =  1.0000000 bulk dielectric constant
   LVACPOTAV  =      F  vacuum potentials using an averaging scheme for the charge density
   VACPOTFLAT =  0.1000000 required flatness to determine vacuum potential
 Exchange correlation treatment:
   GGA     = PE    functional components
   XC_C    = 1    coefficients multiplying the functional components
   LIBXC   =     F    Libxc                    
   VOSKOWN =     0    Vosko Wilk Nusair interpolation
   LHFCALC =     F    Hartree Fock is set to
   LHFONE  =     F    Hartree Fock one center treatment
   AEXX    =    0.0000 exact exchange contribution

 Parameters of functionals:
   PE:
     No parameter
 
 Van der Waals corrections
   IVDW    =     0    specifies the selected vdW correction

 Linear response parameters
   LEPSILON=     F    determine dielectric tensor
   LRPA    =     F    only Hartree local field effects (RPA)
   LNABLA  =     F    use nabla operator in PAW spheres
   LVEL    =     F    velocity operator in full k-point grid
   CSHIFT  =0.1000    complex shift for real part using Kramers Kronig
   OMEGAMAX=  -1.0    maximum frequency
   DEG_THRESHOLD= 0.2000000E-02 threshold for treating states as degnerate
   RTIME   =   -0.100 relaxation time in fs
  (WPLASMAI=    0.000 imaginary part of plasma frequency in eV, 0.658/RTIME)
   DFIELD  = 0.0000000 0.0000000 0.0000000 field for delta impulse in time
 
  Optional k-point grid parameters
   LKPOINTS_OPT  =     F    use optional k-point grid
   KPOINTS_OPT_MODE=     1    mode for optional k-point grid
 
 Orbital magnetization related:
   ORBITALMAG=     F  switch on orbital magnetization
   LCHIMAG   =     F  perturbation theory with respect to B field
   DQ        =  0.001000  dq finite difference perturbation B field
   LLRAUG    =     F  two centre corrections for induced B field
   LBONE     =     F  B-component reconstruction in AE one-centre
   LVGVCALC  =     T  calculate vGv susceptibility
   LVGVAPPL  =     F  apply vGv susceptibility instead of pGv for G=0

 Random number generation:
   RANDOM_GENERATOR = DEFAULT
   PCG_SEED         = not used


--------------------------------------------------------------------------------------------------------


 Static calculation
 charge density and potential will be updated during run
 spin polarized calculation
 Variant of blocked Davidson
 Davidson routine will perform the subspace rotation
 perform sub-space diagonalisation
    after iterative eigenvector-optimisation
 modified Broyden-mixing scheme, WC =      100.0
 initial mixing is a Kerker type mixing with AMIX =  0.4000 and BMIX =      1.0000
 Hartree-type preconditioning will be used
 using additional bands           50
 reciprocal scheme for non local part
 use partial core corrections
 calculate Harris-corrections to forces 
   (improved forces if not selfconsistent)
 use gradient corrections 
 use of overlap-Matrix (Vanderbilt PP)
 Fermi weights with tetrahedron method with Bloechl corrections


--------------------------------------------------------------------------------------------------------


  energy-cutoff  :      520.00
  volume of cell :      172.00
      direct lattice vectors                 reciprocal lattice vectors
     3.855980337  0.000000000  0.000000000     0.259337422  0.000000000  0.000000000
     0.000000000  3.855980337  0.000000000     0.000000000  0.259337422  0.000000000
     0.000000000  0.000000000 11.568014538     0.000000000  0.000000000  0.086445258

  length of vectors
     3.855980337  3.855980337 11.568014538     0.259337422  0.259337422  0.086445258


 
 k-points in units of 2pi/SCALE and weight: pymatgen with grid density = 8800 / numb
   0.00000000  0.00000000  0.00000000       0.001
   0.01994903  0.00000000  0.00000000       0.006
   0.03989806  0.00000000  0.00000000       0.006
   0.05984710  0.00000000  0.00000000       0.006
   0.07979613  0.00000000  0.00000000       0.006
   0.09974516  0.00000000  0.00000000       0.006
   0.11969419  0.00000000  0.00000000       0.006
   0.01994903  0.01994903  0.00000000       0.006
   0.03989806  0.01994903  0.00000000       0.012
   0.05984710  0.01994903  0.00000000       0.012
   0.07979613  0.01994903  0.00000000       0.012
   0.09974516  0.01994903  0.00000000       0.012
   0.11969419  0.01994903  0.00000000       0.012
   0.03989806  0.03989806  0.00000000       0.006
   0.05984710  0.03989806  0.00000000       0.012
   0.07979613  0.03989806  0.00000000       0.012
   0.09974516  0.03989806  0.00000000       0.012
   0.11969419  0.03989806  0.00000000       0.012
   0.05984710  0.05984710  0.00000000       0.006
   0.07979613  0.05984710  0.00000000       0.012
   0.09974516  0.05984710  0.00000000       0.012
   0.11969419  0.05984710  0.00000000       0.012
   0.07979613  0.07979613  0.00000000       0.006
   0.09974516  0.07979613  0.00000000       0.012
   0.11969419  0.07979613  0.00000000       0.012
   0.09974516  0.09974516  0.00000000       0.006
   0.11969419  0.09974516  0.00000000       0.012
   0.11969419  0.11969419  0.00000000       0.006
   0.00000000  0.00000000  0.02161131       0.003
   0.01994903  0.00000000  0.02161131       0.012
   0.03989806  0.00000000  0.02161131       0.012
   0.05984710  0.00000000  0.02161131       0.012
   0.07979613  0.00000000  0.02161131       0.012
   0.09974516  0.00000000  0.02161131       0.012
   0.11969419  0.00000000  0.02161131       0.012
   0.01994903  0.01994903  0.02161131       0.012
   0.03989806  0.01994903  0.02161131       0.024
   0.05984710  0.01994903  0.02161131       0.024
   0.07979613  0.01994903  0.02161131       0.024
   0.09974516  0.01994903  0.02161131       0.024
   0.11969419  0.01994903  0.02161131       0.024
   0.03989806  0.03989806  0.02161131       0.012
   0.05984710  0.03989806  0.02161131       0.024
   0.07979613  0.03989806  0.02161131       0.024
   0.09974516  0.03989806  0.02161131       0.024
   0.11969419  0.03989806  0.02161131       0.024
   0.05984710  0.05984710  0.02161131       0.012
   0.07979613  0.05984710  0.02161131       0.024
   0.09974516  0.05984710  0.02161131       0.024
   0.11969419  0.05984710  0.02161131       0.024
   0.07979613  0.07979613  0.02161131       0.012
   0.09974516  0.07979613  0.02161131       0.024
   0.11969419  0.07979613  0.02161131       0.024
   0.09974516  0.09974516  0.02161131       0.012
   0.11969419  0.09974516  0.02161131       0.024
   0.11969419  0.11969419  0.02161131       0.012
   0.00000000  0.00000000  0.04322263       0.001
   0.01994903  0.00000000  0.04322263       0.006
   0.03989806  0.00000000  0.04322263       0.006
   0.05984710  0.00000000  0.04322263       0.006
   0.07979613  0.00000000  0.04322263       0.006
   0.09974516  0.00000000  0.04322263       0.006
   0.11969419  0.00000000  0.04322263       0.006
   0.01994903  0.01994903  0.04322263       0.006
   0.03989806  0.01994903  0.04322263       0.012
   0.05984710  0.01994903  0.04322263       0.012
   0.07979613  0.01994903  0.04322263       0.012
   0.09974516  0.01994903  0.04322263       0.012
   0.11969419  0.01994903  0.04322263       0.012
   0.03989806  0.03989806  0.04322263       0.006
   0.05984710  0.03989806  0.04322263       0.012
   0.07979613  0.03989806  0.04322263       0.012
   0.09974516  0.03989806  0.04322263       0.012
   0.11969419  0.03989806  0.04322263       0.012
   0.05984710  0.05984710  0.04322263       0.006
   0.07979613  0.05984710  0.04322263       0.012
   0.09974516  0.05984710  0.04322263       0.012
   0.11969419  0.05984710  0.04322263       0.012
   0.07979613  0.07979613  0.04322263       0.006
   0.09974516  0.07979613  0.04322263       0.012
   0.11969419  0.07979613  0.04322263       0.012
   0.09974516  0.09974516  0.04322263       0.006
   0.11969419  0.09974516  0.04322263       0.012
   0.11969419  0.11969419  0.04322263       0.006
 
 k-points in reciprocal lattice and weights: pymatgen with grid density = 8800 / numb
   0.00000000  0.00000000  0.00000000       0.001
   0.07692308  0.00000000  0.00000000       0.006
   0.15384615  0.00000000  0.00000000       0.006
   0.23076923  0.00000000  0.00000000       0.006
   0.30769231  0.00000000  0.00000000       0.006
   0.38461538  0.00000000  0.00000000       0.006
   0.46153846  0.00000000  0.00000000       0.006
   0.07692308  0.07692308  0.00000000       0.006
   0.15384615  0.07692308  0.00000000       0.012
   0.23076923  0.07692308  0.00000000       0.012
   0.30769231  0.07692308  0.00000000       0.012
   0.38461538  0.07692308  0.00000000       0.012
   0.46153846  0.07692308  0.00000000       0.012
   0.15384615  0.15384615  0.00000000       0.006
   0.23076923  0.15384615  0.00000000       0.012
   0.30769231  0.15384615  0.00000000       0.012
   0.38461538  0.15384615  0.00000000       0.012
   0.46153846  0.15384615  0.00000000       0.012
   0.23076923  0.23076923  0.00000000       0.006
   0.30769231  0.23076923  0.00000000       0.012
   0.38461538  0.23076923  0.00000000       0.012
   0.46153846  0.23076923  0.00000000       0.012
   0.30769231  0.30769231  0.00000000       0.006
   0.38461538  0.30769231  0.00000000       0.012
   0.46153846  0.30769231  0.00000000       0.012
   0.38461538  0.38461538  0.00000000       0.006
   0.46153846  0.38461538  0.00000000       0.012
   0.46153846  0.46153846  0.00000000       0.006
   0.00000000  0.00000000  0.25000000       0.003
   0.07692308  0.00000000  0.25000000       0.012
   0.15384615  0.00000000  0.25000000       0.012
   0.23076923  0.00000000  0.25000000       0.012
   0.30769231  0.00000000  0.25000000       0.012
   0.38461538  0.00000000  0.25000000       0.012
   0.46153846  0.00000000  0.25000000       0.012
   0.07692308  0.07692308  0.25000000       0.012
   0.15384615  0.07692308  0.25000000       0.024
   0.23076923  0.07692308  0.25000000       0.024
   0.30769231  0.07692308  0.25000000       0.024
   0.38461538  0.07692308  0.25000000       0.024
   0.46153846  0.07692308  0.25000000       0.024
   0.15384615  0.15384615  0.25000000       0.012
   0.23076923  0.15384615  0.25000000       0.024
   0.30769231  0.15384615  0.25000000       0.024
   0.38461538  0.15384615  0.25000000       0.024
   0.46153846  0.15384615  0.25000000       0.024
   0.23076923  0.23076923  0.25000000       0.012
   0.30769231  0.23076923  0.25000000       0.024
   0.38461538  0.23076923  0.25000000       0.024
   0.46153846  0.23076923  0.25000000       0.024
   0.30769231  0.30769231  0.25000000       0.012
   0.38461538  0.30769231  0.25000000       0.024
   0.46153846  0.30769231  0.25000000       0.024
   0.38461538  0.38461538  0.25000000       0.012
   0.46153846  0.38461538  0.25000000       0.024
   0.46153846  0.46153846  0.25000000       0.012
   0.00000000  0.00000000  0.50000000       0.001
   0.07692308  0.00000000  0.50000000       0.006
   0.15384615  0.00000000  0.50000000       0.006
   0.23076923  0.00000000  0.50000000       0.006
   0.30769231  0.00000000  0.50000000       0.006
   0.38461538  0.00000000  0.50000000       0.006
   0.46153846  0.00000000  0.50000000       0.006
   0.07692308  0.07692308  0.50000000       0.006
   0.15384615  0.07692308  0.50000000       0.012
   0.23076923  0.07692308  0.50000000       0.012
   0.30769231  0.07692308  0.50000000       0.012
   0.38461538  0.07692308  0.50000000       0.012
   0.46153846  0.07692308  0.50000000       0.012
   0.15384615  0.15384615  0.50000000       0.006
   0.23076923  0.15384615  0.50000000       0.012
   0.30769231  0.15384615  0.50000000       0.012
   0.38461538  0.15384615  0.50000000       0.012
   0.46153846  0.15384615  0.50000000       0.012
   0.23076923  0.23076923  0.50000000       0.006
   0.30769231  0.23076923  0.50000000       0.012
   0.38461538  0.23076923  0.50000000       0.012
   0.46153846  0.23076923  0.50000000       0.012
   0.30769231  0.30769231  0.50000000       0.006
   0.38461538  0.30769231  0.50000000       0.012
   0.46153846  0.30769231  0.50000000       0.012
   0.38461538  0.38461538  0.50000000       0.006
   0.46153846  0.38461538  0.50000000       0.012
   0.46153846  0.46153846  0.50000000       0.006
 
 position of ions in fractional coordinates (direct lattice) 
   0.00000000  0.50000000  0.16668688
   0.00000000  0.50000000  0.50000000
   0.00000000  0.50000000  0.83331312
   0.50000000  0.50000000  0.00000000
   0.50000000  0.50000000  0.33335281
   0.50000000  0.50000000  0.66664719
   0.50000000  0.00000000  0.16668688
   0.50000000  0.00000000  0.50000000
   0.50000000  0.00000000  0.83331312
   0.00000000  0.00000000  0.00000000
   0.00000000  0.00000000  0.33334460
   0.00000000  0.00000000  0.66665540
 
 position of ions in cartesian coordinates  (Angst):
   0.00000000  1.92799017  1.92823630
   0.00000000  1.92799017  5.78400727
   0.00000000  1.92799017  9.63977824
   1.92799017  1.92799017  0.00000000
   1.92799017  1.92799017  3.85623014
   1.92799017  1.92799017  7.71178439
   1.92799017  0.00000000  1.92823630
   1.92799017  0.00000000  5.78400727
   1.92799017  0.00000000  9.63977824
   0.00000000  0.00000000  0.00000000
   0.00000000  0.00000000  3.85613517
   0.00000000  0.00000000  7.71187937
 


--------------------------------------------------------------------------------------------------------


 k-point     1 :   0.0000 0.0000 0.0000  plane waves:    4619
 k-point     2 :   0.0769 0.0000 0.0000  plane waves:    4619
 k-point     3 :   0.1538 0.0000 0.0000  plane waves:    4629
 k-point     4 :   0.2308 0.0000 0.0000  plane waves:    4616
 k-point     5 :   0.3077 0.0000 0.0000  plane waves:    4642
 k-point     6 :   0.3846 0.0000 0.0000  plane waves:    4634
 k-point     7 :   0.4615 0.0000 0.0000  plane waves:    4642
 k-point     8 :   0.0769 0.0769 0.0000  plane waves:    4612
 k-point     9 :   0.1538 0.0769 0.0000  plane waves:    4611
 k-point    10 :   0.2308 0.0769 0.0000  plane waves:    4640
 k-point    11 :   0.3077 0.0769 0.0000  plane waves:    4648
 k-point    12 :   0.3846 0.0769 0.0000  plane waves:    4650
 k-point    13 :   0.4615 0.0769 0.0000  plane waves:    4651
 k-point    14 :   0.1538 0.1538 0.0000  plane waves:    4612
 k-point    15 :   0.2308 0.1538 0.0000  plane waves:    4639
 k-point    16 :   0.3077 0.1538 0.0000  plane waves:    4634
 k-point    17 :   0.3846 0.1538 0.0000  plane waves:    4637
 k-point    18 :   0.4615 0.1538 0.0000  plane waves:    4633
 k-point    19 :   0.2308 0.2308 0.0000  plane waves:    4644
 k-point    20 :   0.3077 0.2308 0.0000  plane waves:    4629
 k-point    21 :   0.3846 0.2308 0.0000  plane waves:    4629
 k-point    22 :   0.4615 0.2308 0.0000  plane waves:    4624
 k-point    23 :   0.3077 0.3077 0.0000  plane waves:    4642
 k-point    24 :   0.3846 0.3077 0.0000  plane waves:    4633
 k-point    25 :   0.4615 0.3077 0.0000  plane waves:    4636
 k-point    26 :   0.3846 0.3846 0.0000  plane waves:    4632
 k-point    27 :   0.4615 0.3846 0.0000  plane waves:    4639
 k-point    28 :   0.4615 0.4615 0.0000  plane waves:    4650
 k-point    29 :   0.0000 0.0000 0.2500  plane waves:    4607
 k-point    30 :   0.0769 0.0000 0.2500  plane waves:    4612
 k-point    31 :   0.1538 0.0000 0.2500  plane waves:    4619
 k-point    32 :   0.2308 0.0000 0.2500  plane waves:    4635
 k-point    33 :   0.3077 0.0000 0.2500  plane waves:    4639
 k-point    34 :   0.3846 0.0000 0.2500  plane waves:    4643
 k-point    35 :   0.4615 0.0000 0.2500  plane waves:    4640
 k-point    36 :   0.0769 0.0769 0.2500  plane waves:    4608
 k-point    37 :   0.1538 0.0769 0.2500  plane waves:    4618
 k-point    38 :   0.2308 0.0769 0.2500  plane waves:    4628
 k-point    39 :   0.3077 0.0769 0.2500  plane waves:    4630
 k-point    40 :   0.3846 0.0769 0.2500  plane waves:    4646
 k-point    41 :   0.4615 0.0769 0.2500  plane waves:    4640
 k-point    42 :   0.1538 0.1538 0.2500  plane waves:    4614
 k-point    43 :   0.2308 0.1538 0.2500  plane waves:    4625
 k-point    44 :   0.3077 0.1538 0.2500  plane waves:    4635
 k-point    45 :   0.3846 0.1538 0.2500  plane waves:    4632
 k-point    46 :   0.4615 0.1538 0.2500  plane waves:    4634
 k-point    47 :   0.2308 0.2308 0.2500  plane waves:    4626
 k-point    48 :   0.3077 0.2308 0.2500  plane waves:    4632
 k-point    49 :   0.3846 0.2308 0.2500  plane waves:    4626
 k-point    50 :   0.4615 0.2308 0.2500  plane waves:    4629
 k-point    51 :   0.3077 0.3077 0.2500  plane waves:    4640
 k-point    52 :   0.3846 0.3077 0.2500  plane waves:    4632
 k-point    53 :   0.4615 0.3077 0.2500  plane waves:    4635
 k-point    54 :   0.3846 0.3846 0.2500  plane waves:    4643
 k-point    55 :   0.4615 0.3846 0.2500  plane waves:    4635
 k-point    56 :   0.4615 0.4615 0.2500  plane waves:    4644
 k-point    57 :   0.0000 0.0000 0.5000  plane waves:    4628
 k-point    58 :   0.0769 0.0000 0.5000  plane waves:    4604
 k-point    59 :   0.1538 0.0000 0.5000  plane waves:    4620
 k-point    60 :   0.2308 0.0000 0.5000  plane waves:    4636
 k-point    61 :   0.3077 0.0000 0.5000  plane waves:    4634
 k-point    62 :   0.3846 0.0000 0.5000  plane waves:    4648
 k-point    63 :   0.4615 0.0000 0.5000  plane waves:    4640
 k-point    64 :   0.0769 0.0769 0.5000  plane waves:    4610
 k-point    65 :   0.1538 0.0769 0.5000  plane waves:    4622
 k-point    66 :   0.2308 0.0769 0.5000  plane waves:    4620
 k-point    67 :   0.3077 0.0769 0.5000  plane waves:    4634
 k-point    68 :   0.3846 0.0769 0.5000  plane waves:    4636
 k-point    69 :   0.4615 0.0769 0.5000  plane waves:    4638
 k-point    70 :   0.1538 0.1538 0.5000  plane waves:    4602
 k-point    71 :   0.2308 0.1538 0.5000  plane waves:    4608
 k-point    72 :   0.3077 0.1538 0.5000  plane waves:    4618
 k-point    73 :   0.3846 0.1538 0.5000  plane waves:    4622
 k-point    74 :   0.4615 0.1538 0.5000  plane waves:    4632
 k-point    75 :   0.2308 0.2308 0.5000  plane waves:    4624
 k-point    76 :   0.3077 0.2308 0.5000  plane waves:    4634
 k-point    77 :   0.3846 0.2308 0.5000  plane waves:    4626
 k-point    78 :   0.4615 0.2308 0.5000  plane waves:    4634
 k-point    79 :   0.3077 0.3077 0.5000  plane waves:    4628
 k-point    80 :   0.3846 0.3077 0.5000  plane waves:    4626
 k-point    81 :   0.4615 0.3077 0.5000  plane waves:    4628
 k-point    82 :   0.3846 0.3846 0.5000  plane waves:    4642
 k-point    83 :   0.4615 0.3846 0.5000  plane waves:    4644
 k-point    84 :   0.4615 0.4615 0.5000  plane waves:    4664

 maximum and minimum number of plane-waves per node :      4664     4602

 maximum number of plane-waves:      4664
 maximum index in each direction: 
   IXMAX=    7   IYMAX=    7   IZMAX=   21
   IXMIN=   -7   IYMIN=   -7   IZMIN=  -22


 serial   3D FFT for wavefunctions
 parallel 3D FFT for charge:
    minimum data exchange during FFTs selected (reduces bandwidth)


 total amount of memory used by VASP MPI-rank0   206243. kBytes
=======================================================================

   base      :      30000. kBytes
   nonl-proj :     113922. kBytes
   fftplans  :       1055. kBytes
   grid      :       8252. kBytes
   one-center:        373. kBytes
   wavefun   :      52641. kBytes
 
     INWAV:  cpu time      0.0000: real time      0.0000
 Broyden mixing: mesh for mixing (old mesh)
   NGX = 15   NGY = 15   NGZ = 43
  (NGX  = 60   NGY  = 60   NGZ  =180)
  gives a total of   9675 points

 initial charge density was supplied:
 charge density of overlapping atoms calculated
 number of electron     156.0000000 magnetization      26.9790000
 keeping initial charge density in first step


--------------------------------------------------------------------------------------------------------


 Maximum index for augmentation-charges         1101 (set IRDMAX)


--------------------------------------------------------------------------------------------------------


 First call to EWALD:  gamma=   0.319
 Maximum number of real-space cells 4x 4x 2
 Maximum number of reciprocal cells 2x 2x 5

    FEWALD:  cpu time      0.0010: real time      0.0010


--------------------------------------- Ionic step        1  -------------------------------------------




--------------------------------------- Iteration      1(   1)  ---------------------------------------


    POTLOK:  cpu time      0.0317: real time      0.0510
    SETDIJ:  cpu time      0.0102: real time      0.0106
     EDDAV:  cpu time      6.6878: real time      6.7369
 BZINTS: Fermi energy:   21.897574;  156.000000 electrons
         Band energy: 0.358792E+03;  BLOECHL correction:   -0.057572
       DOS:  cpu time      0.1258: real time      0.1274
    --------------------------------------------
      LOOP:  cpu time      6.8555: real time      6.9260

 eigenvalue-minimisations  : 43008
 total energy-change (2. order) : 0.1777301E+04  (-0.8514298E+04)
 number of electron     156.0000000 magnetization      26.9790000
 augmentation part      156.0000000 magnetization      26.9790000

 Free energy of the ion-electron system (eV)
  ---------------------------------------------------
  alpha Z        PSCENC =       989.47749747
  Ewald energy   TEWEN  =    -17512.95745481
  -Hartree energ DENC   =     -6292.37984120
  -exchange      EXHF   =         0.00000000
  -V(xc)+E(xc)   XCENC  =       654.10323673
  PAW double counting   =     20093.01595527   -20816.85252197
  entropy T*S    EENTRO =         0.00000000
  eigenvalues    EBANDS =       358.79159072
  atomic energy  EATOM  =     24304.10294433
  Solvation  Ediel_sol  =         0.00000000
  ---------------------------------------------------
  free energy    TOTEN  =      1777.30140652 eV

  energy without entropy =     1777.30140652  energy(sigma->0) =     1777.30140652


--------------------------------------------------------------------------------------------------------




--------------------------------------- Iteration      1(   2)  ---------------------------------------


     EDDAV:  cpu time      6.6392: real time      6.6928
 BZINTS: Fermi energy:   10.840203;  156.000000 electrons
         Band energy:-0.141120E+04;  BLOECHL correction:   -0.026958
       DOS:  cpu time      0.1291: real time      0.1300
    --------------------------------------------
      LOOP:  cpu time      6.7683: real time      6.8229

 eigenvalue-minimisations  : 43040
 total energy-change (2. order) :-0.1769995E+04  (-0.1677893E+04)
 number of electron     156.0000000 magnetization      26.9790000
 augmentation part      156.0000000 magnetization      26.9790000

 Free energy of the ion-electron system (eV)
  ---------------------------------------------------
  alpha Z        PSCENC =       989.47749747
  Ewald energy   TEWEN  =    -17512.95745481
  -Hartree energ DENC   =     -6292.37984120
  -exchange      EXHF   =         0.00000000
  -V(xc)+E(xc)   XCENC  =       654.10323673
  PAW double counting   =     20093.01595527   -20816.85252197
  entropy T*S    EENTRO =         0.00000000
  eigenvalues    EBANDS =     -1411.20345737
  atomic energy  EATOM  =     24304.10294433
  Solvation  Ediel_sol  =         0.00000000
  ---------------------------------------------------
  free energy    TOTEN  =         7.30635843 eV

  energy without entropy =        7.30635843  energy(sigma->0) =        7.30635843


--------------------------------------------------------------------------------------------------------




--------------------------------------- Iteration      1(   3)  ---------------------------------------


     EDDAV:  cpu time      7.8855: real time      7.9460
 BZINTS: Fermi energy:   10.242178;  156.000000 electrons
         Band energy:-0.152032E+04;  BLOECHL correction:   -0.040886
       DOS:  cpu time      0.1303: real time      0.1311
    --------------------------------------------
      LOOP:  cpu time      8.0158: real time      8.0771

 eigenvalue-minimisations  : 50496
 total energy-change (2. order) :-0.1091127E+03  (-0.1071833E+03)
 number of electron     156.0000000 magnetization      26.9790000
 augmentation part      156.0000000 magnetization      26.9790000

 Free energy of the ion-electron system (eV)
  ---------------------------------------------------
  alpha Z        PSCENC =       989.47749747
  Ewald energy   TEWEN  =    -17512.95745481
  -Hartree energ DENC   =     -6292.37984120
  -exchange      EXHF   =         0.00000000
  -V(xc)+E(xc)   XCENC  =       654.10323673
  PAW double counting   =     20093.01595527   -20816.85252197
  entropy T*S    EENTRO =         0.00000000
  eigenvalues    EBANDS =     -1520.31618915
  atomic energy  EATOM  =     24304.10294433
  Solvation  Ediel_sol  =         0.00000000
  ---------------------------------------------------
  free energy    TOTEN  =      -101.80637335 eV

  energy without entropy =     -101.80637335  energy(sigma->0) =     -101.80637335


--------------------------------------------------------------------------------------------------------




--------------------------------------- Iteration      1(   4)  ---------------------------------------


     EDDAV:  cpu time      7.1854: real time      7.2361
 BZINTS: Fermi energy:   10.237198;  156.000000 electrons
         Band energy:-0.152201E+04;  BLOECHL correction:   -0.040919
       DOS:  cpu time      0.1294: real time      0.1306
    --------------------------------------------
      LOOP:  cpu time      7.3148: real time      7.3667

 eigenvalue-minimisations  : 46016
 total energy-change (2. order) :-0.1690652E+01  (-0.1690183E+01)
 number of electron     156.0000000 magnetization      26.9790000
 augmentation part      156.0000000 magnetization      26.9790000

 Free energy of the ion-electron system (eV)
  ---------------------------------------------------
  alpha Z        PSCENC =       989.47749747
  Ewald energy   TEWEN  =    -17512.95745481
  -Hartree energ DENC   =     -6292.37984120
  -exchange      EXHF   =         0.00000000
  -V(xc)+E(xc)   XCENC  =       654.10323673
  PAW double counting   =     20093.01595527   -20816.85252197
  entropy T*S    EENTRO =         0.00000000
  eigenvalues    EBANDS =     -1522.00684144
  atomic energy  EATOM  =     24304.10294433
  Solvation  Ediel_sol  =         0.00000000
  ---------------------------------------------------
  free energy    TOTEN  =      -103.49702564 eV

  energy without entropy =     -103.49702564  energy(sigma->0) =     -103.49702564


--------------------------------------------------------------------------------------------------------




--------------------------------------- Iteration      1(   5)  ---------------------------------------


     EDDAV:  cpu time      8.2872: real time      8.3488
 BZINTS: Fermi energy:   10.237151;  156.000000 electrons
         Band energy:-0.152204E+04;  BLOECHL correction:   -0.040917
       DOS:  cpu time      0.1290: real time      0.1300
    CHARGE:  cpu time      0.1819: real time      0.1833
    MIXING:  cpu time      0.0056: real time      0.0057
    --------------------------------------------
      LOOP:  cpu time      8.6037: real time      8.6677

 eigenvalue-minimisations  : 52736
 total energy-change (2. order) :-0.3584983E-01  (-0.3584899E-01)
 number of electron     155.9999720 magnetization      26.5531695
 augmentation part       79.4920711 magnetization      18.7468955

 Broyden mixing:
  rms(total) = 0.34844E+01    rms(broyden)= 0.34842E+01
  rms(prec ) = 0.39925E+01
  weight for this iteration     100.00

 Free energy of the ion-electron system (eV)
  ---------------------------------------------------
  alpha Z        PSCENC =       989.47749747
  Ewald energy   TEWEN  =    -17512.95745481
  -Hartree energ DENC   =     -6292.37984120
  -exchange      EXHF   =         0.00000000
  -V(xc)+E(xc)   XCENC  =       654.10323673
  PAW double counting   =     20093.01595527   -20816.85252197
  entropy T*S    EENTRO =         0.00000000
  eigenvalues    EBANDS =     -1522.04269127
  atomic energy  EATOM  =     24304.10294433
  Solvation  Ediel_sol  =         0.00000000
  ---------------------------------------------------
  free energy    TOTEN  =      -103.53287546 eV

  energy without entropy =     -103.53287546  energy(sigma->0) =     -103.53287546


--------------------------------------------------------------------------------------------------------




--------------------------------------- Iteration      1(   6)  ---------------------------------------


    POTLOK:  cpu time      0.0421: real time      0.0483
    SETDIJ:  cpu time      0.0088: real time      0.0089
     EDDAV:  cpu time      7.4756: real time      7.5294
 BZINTS: Fermi energy:    7.664955;  156.000000 electrons
         Band energy:-0.196547E+04;  BLOECHL correction:   -0.067445
       DOS:  cpu time      0.1361: real time      0.1371
    CHARGE:  cpu time      0.1759: real time      0.1770
    MIXING:  cpu time      0.0030: real time      0.0067
    --------------------------------------------
      LOOP:  cpu time      7.8415: real time      7.9074

 eigenvalue-minimisations  : 48384
 total energy-change (2. order) : 0.3426925E+00  (-0.7049270E+01)
 number of electron     155.9999688 magnetization      25.8440469
 augmentation part       88.7550365 magnetization      20.6023998

 Broyden mixing:
  rms(total) = 0.42962E+01    rms(broyden)= 0.42961E+01
  rms(prec ) = 0.52380E+01
  weight for this iteration     100.00

 eigenvalues of (default mixing * dielectric matrix)
  average eigenvalue GAMMA=   0.3315
  0.3315

 Free energy of the ion-electron system (eV)
  ---------------------------------------------------
  alpha Z        PSCENC =       989.47749747
  Ewald energy   TEWEN  =    -17512.95745481
  -Hartree energ DENC   =     -5857.76965410
  -exchange      EXHF   =         0.00000000
  -V(xc)+E(xc)   XCENC  =       637.41352082
  PAW double counting   =     20148.33970077   -20846.33110442
  entropy T*S    EENTRO =         0.00000000
  eigenvalues    EBANDS =     -1965.46563298
  atomic energy  EATOM  =     24304.10294433
  Solvation  Ediel_sol  =         0.00000000
  ---------------------------------------------------
  free energy    TOTEN  =      -103.19018294 eV

  energy without entropy =     -103.19018294  energy(sigma->0) =     -103.19018294


--------------------------------------------------------------------------------------------------------




--------------------------------------- Iteration      1(   7)  ---------------------------------------


    POTLOK:  cpu time      0.0430: real time      0.0480
    SETDIJ:  cpu time      0.0079: real time      0.0079
     EDDAV:  cpu time      7.6444: real time      7.6971
 BZINTS: Fermi energy:    8.767857;  156.000000 electrons
         Band energy:-0.177699E+04;  BLOECHL correction:   -0.069585
       DOS:  cpu time      0.1372: real time      0.1381
    CHARGE:  cpu time      0.1747: real time      0.1758
    MIXING:  cpu time      0.0029: real time      0.0029
    --------------------------------------------
      LOOP:  cpu time      8.0100: real time      8.0698

 eigenvalue-minimisations  : 49216
 total energy-change (2. order) : 0.8817852E+01  (-0.9337368E+01)
 number of electron     155.9999709 magnetization      25.8414546
 augmentation part       84.3165463 magnetization      18.6947308

 Broyden mixing:
  rms(total) = 0.16786E+01    rms(broyden)= 0.16786E+01
  rms(prec ) = 0.19116E+01
  weight for this iteration     100.00

 eigenvalues of (default mixing * dielectric matrix)
  average eigenvalue GAMMA=   0.6345
  0.9758  0.2933

 Free energy of the ion-electron system (eV)
  ---------------------------------------------------
  alpha Z        PSCENC =       989.47749747
  Ewald energy   TEWEN  =    -17512.95745481
  -Hartree energ DENC   =     -6011.86650381
  -exchange      EXHF   =         0.00000000
  -V(xc)+E(xc)   XCENC  =       641.87383831
  PAW double counting   =     20677.11667194   -21405.12578200
  entropy T*S    EENTRO =         0.00000000
  eigenvalues    EBANDS =     -1776.99354220
  atomic energy  EATOM  =     24304.10294433
  Solvation  Ediel_sol  =         0.00000000
  ---------------------------------------------------
  free energy    TOTEN  =       -94.37233078 eV

  energy without entropy =      -94.37233078  energy(sigma->0) =      -94.37233078


--------------------------------------------------------------------------------------------------------




--------------------------------------- Iteration      1(   8)  ---------------------------------------


    POTLOK:  cpu time      0.0417: real time      0.0484
    SETDIJ:  cpu time      0.0087: real time      0.0087
     EDDAV:  cpu time      7.6874: real time      7.7416
 BZINTS: Fermi energy:    8.613321;  156.000000 electrons
         Band energy:-0.179804E+04;  BLOECHL correction:   -0.069142
       DOS:  cpu time      0.1360: real time      0.1369
    CHARGE:  cpu time      0.1707: real time      0.1718
    MIXING:  cpu time      0.0020: real time      0.0021
    --------------------------------------------
      LOOP:  cpu time      8.0465: real time      8.1095

 eigenvalue-minimisations  : 49312
 total energy-change (2. order) : 0.1047120E+01  (-0.2945335E+00)
 number of electron     155.9999706 magnetization      25.9378676
 augmentation part       84.8464446 magnetization      19.3959501

 Broyden mixing:
  rms(total) = 0.97983E+00    rms(broyden)= 0.97979E+00
  rms(prec ) = 0.13665E+01
  weight for this iteration     100.00

 eigenvalues of (default mixing * dielectric matrix)
  average eigenvalue GAMMA=   0.7079
  1.1922  0.3254  0.6061

 Free energy of the ion-electron system (eV)
  ---------------------------------------------------
  alpha Z        PSCENC =       989.47749747
  Ewald energy   TEWEN  =    -17512.95745481
  -Hartree energ DENC   =     -5978.44567643
  -exchange      EXHF   =         0.00000000
  -V(xc)+E(xc)   XCENC  =       642.64090244
  PAW double counting   =     21073.80447770   -21813.90735036
  entropy T*S    EENTRO =         0.00000000
  eigenvalues    EBANDS =     -1798.04055139
  atomic energy  EATOM  =     24304.10294433
  Solvation  Ediel_sol  =         0.00000000
  ---------------------------------------------------
  free energy    TOTEN  =       -93.32521105 eV

  energy without entropy =      -93.32521105  energy(sigma->0) =      -93.32521105


--------------------------------------------------------------------------------------------------------




--------------------------------------- Iteration      1(   9)  ---------------------------------------


    POTLOK:  cpu time      0.0471: real time      0.0486
    SETDIJ:  cpu time      0.0081: real time      0.0082
     EDDAV:  cpu time      8.2108: real time      8.2660
 BZINTS: Fermi energy:    8.591459;  156.000000 electrons
         Band energy:-0.180672E+04;  BLOECHL correction:   -0.046925
       DOS:  cpu time      0.1366: real time      0.1375
    CHARGE:  cpu time      0.1706: real time      0.1717
    MIXING:  cpu time      0.0019: real time      0.0019
    --------------------------------------------
      LOOP:  cpu time      8.5752: real time      8.6339

 eigenvalue-minimisations  : 52384
 total energy-change (2. order) :-0.1455379E+01  (-0.1128315E+01)
 number of electron     155.9999704 magnetization      26.0958459
 augmentation part       85.0365001 magnetization      19.6565260

 Broyden mixing:
  rms(total) = 0.20325E+01    rms(broyden)= 0.20324E+01
  rms(prec ) = 0.32198E+01
  weight for this iteration     100.00

 eigenvalues of (default mixing * dielectric matrix)
  average eigenvalue GAMMA=   0.7117
  1.6258  0.7845  0.3147  0.1220

 Free energy of the ion-electron system (eV)
  ---------------------------------------------------
  alpha Z        PSCENC =       989.47749747
  Ewald energy   TEWEN  =    -17512.95745481
  -Hartree energ DENC   =     -5967.29116663
  -exchange      EXHF   =         0.00000000
  -V(xc)+E(xc)   XCENC  =       642.60539282
  PAW double counting   =     21202.77810992   -21946.77192005
  entropy T*S    EENTRO =         0.00000000
  eigenvalues    EBANDS =     -1806.72399353
  atomic energy  EATOM  =     24304.10294433
  Solvation  Ediel_sol  =         0.00000000
  ---------------------------------------------------
  free energy    TOTEN  =       -94.78059050 eV

  energy without entropy =      -94.78059050  energy(sigma->0) =      -94.78059050


--------------------------------------------------------------------------------------------------------




--------------------------------------- Iteration      1(  10)  ---------------------------------------


    POTLOK:  cpu time      0.0428: real time      0.0481
    SETDIJ:  cpu time      0.0087: real time      0.0088
     EDDAV:  cpu time      8.1988: real time      8.2619
 BZINTS: Fermi energy:    8.470005;  156.000000 electrons
         Band energy:-0.181600E+04;  BLOECHL correction:   -0.072499
       DOS:  cpu time      0.1359: real time      0.1375
    CHARGE:  cpu time      0.1741: real time      0.1752
    MIXING:  cpu time      0.0020: real time      0.0021
    --------------------------------------------
      LOOP:  cpu time      8.5624: real time      8.6336

 eigenvalue-minimisations  : 52384
 total energy-change (2. order) : 0.1926510E+01  (-0.5727630E+00)
 number of electron     155.9999704 magnetization      26.1895385
 augmentation part       85.1999154 magnetization      20.0067733

 Broyden mixing:
  rms(total) = 0.47486E+00    rms(broyden)= 0.47472E+00
  rms(prec ) = 0.55248E+00
  weight for this iteration     100.00

 eigenvalues of (default mixing * dielectric matrix)
  average eigenvalue GAMMA=   0.6849
  1.7141  0.7902  0.4707  0.3283  0.1210

 Free energy of the ion-electron system (eV)
  ---------------------------------------------------
  alpha Z        PSCENC =       989.47749747
  Ewald energy   TEWEN  =    -17512.95745481
  -Hartree energ DENC   =     -5948.30282838
  -exchange      EXHF   =         0.00000000
  -V(xc)+E(xc)   XCENC  =       642.38753212
  PAW double counting   =     21451.00220773   -22202.56507717
  entropy T*S    EENTRO =         0.00000000
  eigenvalues    EBANDS =     -1815.99890226
  atomic energy  EATOM  =     24304.10294433
  Solvation  Ediel_sol  =         0.00000000
  ---------------------------------------------------
  free energy    TOTEN  =       -92.85408098 eV

  energy without entropy =      -92.85408098  energy(sigma->0) =      -92.85408098


--------------------------------------------------------------------------------------------------------




--------------------------------------- Iteration      1(  11)  ---------------------------------------


    POTLOK:  cpu time      0.0428: real time      0.0478
    SETDIJ:  cpu time      0.0088: real time      0.0088
     EDDAV:  cpu time      7.7571: real time      7.8088
 BZINTS: Fermi energy:    8.473971;  156.000000 electrons
         Band energy:-0.181546E+04;  BLOECHL correction:   -0.068006
       DOS:  cpu time      0.1360: real time      0.1370
    CHARGE:  cpu time      0.1739: real time      0.1749
    MIXING:  cpu time      0.0023: real time      0.0030
    --------------------------------------------
      LOOP:  cpu time      8.1209: real time      8.1804

 eigenvalue-minimisations  : 50208
 total energy-change (2. order) :-0.2258661E+00  (-0.1458176E+00)
 number of electron     155.9999704 magnetization      26.2581463
 augmentation part       85.1767625 magnetization      20.0565178

 Broyden mixing:
  rms(total) = 0.87594E+00    rms(broyden)= 0.87588E+00
  rms(prec ) = 0.10951E+01
  weight for this iteration     100.00

 eigenvalues of (default mixing * dielectric matrix)
  average eigenvalue GAMMA=   0.6649
  1.7845  0.7934  0.7934  0.3219  0.1194  0.1766

 Free energy of the ion-electron system (eV)
  ---------------------------------------------------
  alpha Z        PSCENC =       989.47749747
  Ewald energy   TEWEN  =    -17512.95745481
  -Hartree energ DENC   =     -5946.05361565
  -exchange      EXHF   =         0.00000000
  -V(xc)+E(xc)   XCENC  =       642.36969533
  PAW double counting   =     21535.37152676   -22289.93154405
  entropy T*S    EENTRO =         0.00000000
  eigenvalues    EBANDS =     -1815.45899647
  atomic energy  EATOM  =     24304.10294433
  Solvation  Ediel_sol  =         0.00000000
  ---------------------------------------------------
  free energy    TOTEN  =       -93.07994709 eV

  energy without entropy =      -93.07994709  energy(sigma->0) =      -93.07994709


--------------------------------------------------------------------------------------------------------




--------------------------------------- Iteration      1(  12)  ---------------------------------------


    POTLOK:  cpu time      0.0471: real time      0.0480
    SETDIJ:  cpu time      0.0086: real time      0.0086
     EDDAV:  cpu time      7.8691: real time      7.9244
 BZINTS: Fermi energy:    8.485607;  156.000000 electrons
         Band energy:-0.181423E+04;  BLOECHL correction:   -0.075927
       DOS:  cpu time      0.1372: real time      0.1382
    CHARGE:  cpu time      0.1730: real time      0.1741
    MIXING:  cpu time      0.0021: real time      0.0021
    --------------------------------------------
      LOOP:  cpu time      8.2371: real time      8.2953

 eigenvalue-minimisations  : 50528
 total energy-change (2. order) : 0.2729536E+00  (-0.9419290E-01)
 number of electron     155.9999705 magnetization      26.3570459
 augmentation part       85.1261654 magnetization      20.1439577

 Broyden mixing:
  rms(total) = 0.23932E+00    rms(broyden)= 0.23925E+00
  rms(prec ) = 0.28084E+00
  weight for this iteration     100.00

 eigenvalues of (default mixing * dielectric matrix)
  average eigenvalue GAMMA=   0.7448
  2.1107  0.9320  0.9320  0.6496  0.3217  0.1200  0.1478

 Free energy of the ion-electron system (eV)
  ---------------------------------------------------
  alpha Z        PSCENC =       989.47749747
  Ewald energy   TEWEN  =    -17512.95745481
  -Hartree energ DENC   =     -5945.08917077
  -exchange      EXHF   =         0.00000000
  -V(xc)+E(xc)   XCENC  =       642.33274699
  PAW double counting   =     21589.81279671   -22346.25989994
  entropy T*S    EENTRO =         0.00000000
  eigenvalues    EBANDS =     -1814.22645347
  atomic energy  EATOM  =     24304.10294433
  Solvation  Ediel_sol  =         0.00000000
  ---------------------------------------------------
  free energy    TOTEN  =       -92.80699349 eV

  energy without entropy =      -92.80699349  energy(sigma->0) =      -92.80699349


--------------------------------------------------------------------------------------------------------




--------------------------------------- Iteration      1(  13)  ---------------------------------------


    POTLOK:  cpu time      0.0427: real time      0.0477
    SETDIJ:  cpu time      0.0086: real time      0.0087
     EDDAV:  cpu time      7.9514: real time      8.0063
 BZINTS: Fermi energy:    8.484873;  156.000000 electrons
         Band energy:-0.181544E+04;  BLOECHL correction:   -0.077709
       DOS:  cpu time      0.1362: real time      0.1373
    CHARGE:  cpu time      0.1723: real time      0.1736
    MIXING:  cpu time      0.0865: real time      0.0869
    --------------------------------------------
      LOOP:  cpu time      8.3978: real time      8.4605

 eigenvalue-minimisations  : 51104
 total energy-change (2. order) :-0.4082974E-01  (-0.1981839E-01)
 number of electron     155.9999705 magnetization      26.4068667
 augmentation part       85.1367677 magnetization      20.1538447

 Broyden mixing:
  rms(total) = 0.38241E+00    rms(broyden)= 0.38240E+00
  rms(prec ) = 0.46286E+00
  weight for this iteration     100.00

 eigenvalues of (default mixing * dielectric matrix)
  average eigenvalue GAMMA=   0.7146
  2.2820  1.0051  1.0051  0.6546  0.3217  0.1202  0.1798  0.1488

 Free energy of the ion-electron system (eV)
  ---------------------------------------------------
  alpha Z        PSCENC =       989.47749747
  Ewald energy   TEWEN  =    -17512.95745481
  -Hartree energ DENC   =     -5942.34040214
  -exchange      EXHF   =         0.00000000
  -V(xc)+E(xc)   XCENC  =       642.21158398
  PAW double counting   =     21645.06528456   -22402.97193456
  entropy T*S    EENTRO =         0.00000000
  eigenvalues    EBANDS =     -1815.43534205
  atomic energy  EATOM  =     24304.10294433
  Solvation  Ediel_sol  =         0.00000000
  ---------------------------------------------------
  free energy    TOTEN  =       -92.84782323 eV

  energy without entropy =      -92.84782323  energy(sigma->0) =      -92.84782323


--------------------------------------------------------------------------------------------------------




--------------------------------------- Iteration      1(  14)  ---------------------------------------


    POTLOK:  cpu time      0.0438: real time      0.0505
    SETDIJ:  cpu time      0.0086: real time      0.0086
     EDDAV:  cpu time      7.6814: real time      7.7321
 BZINTS: Fermi energy:    8.482777;  156.000000 electrons
[...]
    113      22.1764      0.00000
    114      22.7142      0.00000
    115      22.7144      0.00000
    116      22.9767      0.00000
    117      22.9773      0.00000
    118      23.7653      0.00000
    119      23.7655      0.00000
    120      25.4730      0.00000
    121      25.4745      0.00000
    122      25.5352      0.00000
    123      25.8109      0.00000
    124      26.4089      0.00000
    125      26.4091      0.00000
    126      26.8536      0.00000
    127      26.8541      0.00000
    128      27.3415      0.00000


--------------------------------------------------------------------------------------------------------


 soft charge-density along one line, spin component           1
         0         1         2         3         4         5         6         7         8         9
 total charge-density along one line
 
 soft charge-density along one line, spin component           2
         0         1         2         3         4         5         6         7         8         9
 total charge-density along one line
 
 pseudopotential strength for first ion, spin component:           1
-46.189   0.000  -0.000   8.113  -0.000   0.000  -0.000   0.000
  0.000 -46.186  -0.000  -0.000   8.112   0.000  -0.000   0.000
 -0.000  -0.000 -46.075   0.000   0.000   8.066   0.000  -0.000
  8.113  -0.000   0.000   5.518  -0.000   0.000   0.000  -0.000
 -0.000   8.112   0.000  -0.000   5.519   0.000   0.000  -0.000
  0.000   0.000   8.066   0.000   0.000   5.528  -0.000   0.000
 -0.000  -0.000   0.000   0.000   0.000  -0.000  -3.041  -0.000
  0.000   0.000  -0.000  -0.000  -0.000   0.000  -0.000  -3.117
 -0.000   0.000   0.000   0.000  -0.000  -0.000   0.000   0.000
 -0.000  -0.000   0.000   0.000   0.000  -0.000   0.000  -0.000
 -0.000   0.000  -0.000   0.000  -0.000   0.000  -0.000  -0.000
 -0.000  -0.000   0.000   0.000   0.000  -0.000  -3.539  -0.000
  0.000   0.000  -0.000  -0.000  -0.000   0.000  -0.000  -3.614
 -0.000   0.000   0.000   0.000  -0.000  -0.000   0.000   0.000
 -0.000  -0.000   0.000   0.000   0.000  -0.000   0.000  -0.000
 -0.000   0.000  -0.000   0.000  -0.000   0.000  -0.000  -0.000
 -0.000  -0.000   0.000  -0.000   0.000   0.000   0.000  -0.000
 -0.000  -0.000   0.000  -0.000   0.000   0.000   0.000  -0.000
 pseudopotential strength for first ion, spin component:           2
-43.705   0.000  -0.000   7.071  -0.000   0.000  -0.000   0.000
  0.000 -43.703  -0.000  -0.000   7.070   0.000  -0.000   0.000
 -0.000  -0.000 -43.667   0.000   0.000   7.054   0.000  -0.000
  7.071  -0.000   0.000   5.817  -0.000   0.000   0.000  -0.000
 -0.000   7.070   0.000  -0.000   5.817   0.000   0.000  -0.000
  0.000   0.000   7.054   0.000   0.000   5.821  -0.000   0.000
 -0.000  -0.000   0.000   0.000   0.000  -0.000  -1.069  -0.000
  0.000   0.000  -0.000  -0.000  -0.000   0.000  -0.000  -1.087
 -0.000   0.000   0.000   0.000  -0.000  -0.000   0.000   0.000
 -0.000  -0.000   0.000   0.000   0.000  -0.000   0.000  -0.000
 -0.000  -0.000  -0.000   0.000   0.000   0.000  -0.000  -0.000
 -0.000  -0.000   0.000   0.000   0.000  -0.000  -1.599  -0.000
  0.000   0.000  -0.000  -0.000  -0.000   0.000  -0.000  -1.617
 -0.000   0.000   0.000   0.000  -0.000  -0.000   0.000   0.000
 -0.000  -0.000   0.000   0.000   0.000  -0.000   0.000  -0.000
 -0.000  -0.000  -0.000   0.000   0.000   0.000  -0.000  -0.000
 -0.000  -0.000   0.000  -0.000   0.000   0.000   0.000  -0.000
 -0.000  -0.000   0.000  -0.000   0.000   0.000   0.000  -0.000
 total augmentation occupancy for first ion, spin component:           1
  1.992   0.000   0.000  -0.028   0.000  -0.000   0.000  -0.000   0.000   0.000  -0.000   0.000   0.000   0.000   0.000   0.000
  0.000   1.992   0.000  -0.000  -0.028   0.000   0.000   0.000  -0.000   0.000  -0.000   0.000  -0.000   0.000  -0.000   0.000
  0.000   0.000   1.992   0.000  -0.000  -0.027   0.000   0.000   0.000  -0.000   0.000  -0.000   0.000   0.000   0.000   0.000
 -0.028  -0.000   0.000   0.155   0.000   0.000   0.000  -0.000   0.000   0.000   0.000  -0.000   0.000  -0.000  -0.000  -0.000
  0.000  -0.028  -0.000   0.000   0.155   0.000   0.000   0.000   0.000  -0.000  -0.000  -0.000   0.000  -0.000   0.000  -0.000
 -0.000   0.000  -0.027   0.000   0.000   0.137  -0.000   0.000  -0.000  -0.000   0.000   0.000   0.000  -0.000   0.000  -0.000
  0.000   0.000   0.000   0.000   0.000  -0.000   2.968  -0.000   0.000   0.000   0.000  -1.510   0.000   0.000   0.000   0.000
 -0.000   0.000   0.000  -0.000   0.000   0.000  -0.000   3.194   0.000   0.000   0.000   0.000  -1.931  -0.000  -0.000  -0.000
  0.000  -0.000   0.000   0.000   0.000  -0.000   0.000   0.000   3.332  -0.000   0.172  -0.000   0.000  -1.796   0.000  -0.100
  0.000   0.000  -0.000   0.000  -0.000  -0.000   0.000   0.000  -0.000   2.968  -0.000   0.000  -0.000   0.000  -1.510   0.000
 -0.000  -0.000   0.000   0.000  -0.000   0.000   0.000   0.000   0.172  -0.000   3.124   0.000   0.000  -0.100   0.000  -1.675
  0.000   0.000  -0.000  -0.000  -0.000   0.000  -1.510   0.000  -0.000   0.000   0.000   1.457   0.000   0.000  -0.000   0.000
  0.000  -0.000   0.000   0.000   0.000   0.000   0.000  -1.931   0.000  -0.000   0.000   0.000   1.985   0.000   0.000   0.000
  0.000   0.000   0.000  -0.000  -0.000  -0.000   0.000  -0.000  -1.796   0.000  -0.100   0.000   0.000   1.517   0.000   0.024
  0.000  -0.000   0.000  -0.000   0.000   0.000   0.000  -0.000   0.000  -1.510   0.000  -0.000   0.000   0.000   1.458   0.000
  0.000   0.000   0.000  -0.000  -0.000  -0.000   0.000  -0.000  -0.100   0.000  -1.675   0.000   0.000   0.024   0.000   1.486
  0.000   0.000  -0.000   0.000   0.000   0.000   0.000   0.000  -0.093  -0.000   0.158   0.000  -0.000   0.063   0.000  -0.106
  0.000  -0.000   0.000   0.000   0.000   0.000   0.000   0.000   0.005   0.000  -0.010   0.000  -0.000  -0.003   0.000   0.006
 total augmentation occupancy for first ion, spin component:           2
 -0.002   0.000   0.000  -0.010   0.000  -0.000   0.000   0.000   0.000   0.000   0.000  -0.000  -0.000   0.000   0.000   0.000
  0.000  -0.002   0.000   0.000  -0.010   0.000   0.000  -0.000   0.000   0.000  -0.000   0.000   0.000  -0.000   0.000   0.000
  0.000   0.000  -0.002   0.000  -0.000  -0.010   0.000   0.000   0.000   0.000   0.000   0.000  -0.000   0.000  -0.000   0.000
 -0.010   0.000   0.000  -0.005  -0.000  -0.000   0.000  -0.000   0.000   0.000   0.000   0.000   0.000   0.000   0.000  -0.000
  0.000  -0.010  -0.000  -0.000  -0.005   0.000  -0.000   0.000   0.000   0.000  -0.000   0.000   0.000  -0.000  -0.000   0.000
 -0.000   0.000  -0.010  -0.000   0.000  -0.012   0.000  -0.000   0.000  -0.000   0.000   0.000   0.000   0.000   0.000  -0.000
  0.000   0.000   0.000   0.000  -0.000   0.000   2.529   0.000   0.000   0.000   0.000  -1.114  -0.000   0.000   0.000   0.000
  0.000  -0.000   0.000  -0.000   0.000  -0.000   0.000   2.573   0.000  -0.000  -0.000   0.000  -1.064   0.000  -0.000  -0.000
  0.000   0.000   0.000   0.000   0.000   0.000   0.000   0.000   2.860  -0.000   0.106  -0.000   0.000  -1.226   0.000  -0.095
  0.000   0.000   0.000   0.000   0.000  -0.000   0.000  -0.000  -0.000   2.530   0.000   0.000  -0.000  -0.000  -1.114   0.000
  0.000  -0.000   0.000   0.000  -0.000   0.000   0.000  -0.000   0.106   0.000   2.731  -0.000  -0.000  -0.095   0.000  -1.111
 -0.000   0.000   0.000   0.000   0.000   0.000  -1.114   0.000  -0.000   0.000  -0.000   0.300   0.000  -0.000   0.000   0.000
 -0.000   0.000  -0.000   0.000   0.000   0.000  -0.000  -1.064   0.000  -0.000  -0.000   0.000   0.204   0.000   0.000   0.000
  0.000  -0.000   0.000   0.000  -0.000   0.000   0.000   0.000  -1.226  -0.000  -0.095  -0.000   0.000   0.402   0.000   0.108
  0.000   0.000  -0.000   0.000  -0.000   0.000   0.000  -0.000   0.000  -1.114   0.000   0.000   0.000   0.000   0.299   0.000
  0.000   0.000   0.000  -0.000   0.000  -0.000   0.000  -0.000  -0.095   0.000  -1.111   0.000   0.000   0.108   0.000   0.274
 -0.000   0.000  -0.000  -0.000   0.000   0.000   0.000  -0.000  -0.038   0.000   0.062   0.000   0.000   0.037   0.000  -0.061
  0.000   0.000   0.000   0.000   0.000   0.000   0.000   0.000   0.003   0.000  -0.005   0.000   0.000  -0.000  -0.000   0.001


------------------------ aborting loop because EDIFF is reached ----------------------------------------





 total charge

# of ion       s       p       d       tot
------------------------------------------
    1        0.322   6.274   5.969  12.565
    2        0.322   6.274   5.968  12.563
    3        0.322   6.274   5.969  12.565
    4        0.322   6.273   5.970  12.566
    5        0.322   6.274   5.967  12.563
    6        0.322   6.274   5.967  12.563
    7        0.322   6.274   5.969  12.565
    8        0.322   6.274   5.968  12.563
    9        0.322   6.274   5.969  12.565
   10        0.714   0.592   8.000   9.306
   11        0.714   0.593   8.001   9.307
   12        0.714   0.593   8.001   9.307
--------------------------------------------------
tot          5.039  58.240  77.718 140.998



 magnetization (x)

# of ion       s       p       d       tot
------------------------------------------
    1       -0.000  -0.017   2.898   2.881
    2        0.000  -0.017   2.899   2.883
    3       -0.000  -0.017   2.898   2.881
    4        0.000  -0.017   2.894   2.877
    5        0.000  -0.017   2.897   2.880
    6        0.000  -0.017   2.897   2.880
    7       -0.000  -0.017   2.898   2.881
    8        0.000  -0.017   2.899   2.883
    9       -0.000  -0.017   2.898   2.881
   10       -0.042  -0.097   0.429   0.290
   11       -0.042  -0.097   0.430   0.290
   12       -0.042  -0.097   0.430   0.290
--------------------------------------------------
tot         -0.126  -0.445  27.368  26.797
 
    CHARGE:  cpu time      0.1725: real time      0.1735
    FORLOC:  cpu time      0.0015: real time      0.0016
    FORNL :  cpu time      0.8024: real time      0.8063
    STRESS:  cpu time      4.8794: real time      4.9181
    FORCOR:  cpu time      0.0243: real time      0.0244
    FORHAR:  cpu time      0.0031: real time      0.0031
    MIXING:  cpu time      0.0144: real time      0.0145
    OFIELD:  cpu time      0.0018: real time      0.0021

  FORCE on cell =-STRESS in cart. coord.  units (eV):
  Direction    XX          YY          ZZ          XY          YZ          ZX
  --------------------------------------------------------------------------------------
  Alpha Z   989.47750   989.47750   989.47750
  Ewald   -5837.65601 -5837.65601 -5837.66355    -0.00000     0.00000     0.00000
  Hartree  1980.61315  1980.61315  1980.77824    -0.00000    -0.00000    -0.00000
  E(xc)    -941.74253  -941.74253  -941.74248     0.00000     0.00000    -0.00000
  Local     905.83278   905.83278   905.58845    -0.00000     0.00000     0.00000
  n-local  -231.15162  -246.60329  -239.04346    13.15521    -0.18258     0.13474
  augment  1441.34788  1441.34788  1441.47176    -0.00000     0.00000     0.00000
  Kinetic  1688.94231  1683.21703  1685.98417     1.78752     0.27517     1.27922
  Fock        0.00000     0.00000     0.00000     0.00000     0.00000     0.00000
  -------------------------------------------------------------------------------------
  Total     -14.92503   -14.92503   -15.14938     0.00000     0.00000    -0.00000
  in kB    -139.02642  -139.02642  -141.11624     0.00000     0.00000    -0.00000
  external pressure =     -139.72 kB  Pullay stress =        0.00 kB


 VOLUME and BASIS-vectors are now :
 -----------------------------------------------------------------------------
  energy-cutoff  :      520.00
  volume of cell :      172.00
      direct lattice vectors                 reciprocal lattice vectors
     3.855980337  0.000000000  0.000000000     0.259337422  0.000000000  0.000000000
     0.000000000  3.855980337  0.000000000     0.000000000  0.259337422  0.000000000
     0.000000000  0.000000000 11.568014538     0.000000000  0.000000000  0.086445258

  length of vectors
     3.855980337  3.855980337 11.568014538     0.259337422  0.259337422  0.086445258


 FORCES acting on ions
    electron-ion (+dipol)            ewald-force                    non-local-force                 convergence-correction
 -----------------------------------------------------------------------------------------------
   -.151E-13 0.105E-11 0.295E+00   -.241E-13 0.235E-13 -.491E+00   0.407E-21 0.115E-20 -.731E-02   -.214E-12 -.262E-13 0.200E+00
   -.150E-13 0.701E-12 0.296E-12   -.392E-13 -.642E-14 0.568E-13   0.148E-23 0.283E-24 0.312E-24   -.219E-12 -.343E-13 0.175E-11
   -.147E-13 0.995E-12 -.295E+00   -.265E-13 0.760E-14 0.491E+00   -.744E-21 0.249E-20 0.731E-02   -.215E-12 -.232E-13 -.200E+00
   0.663E-12 0.760E-11 -.512E-11   0.150E-13 -.820E-14 0.341E-12   0.299E-24 0.315E-24 -.109E-23   0.138E-12 -.297E-13 -.971E-12
   0.670E-12 0.622E-11 0.213E+00   0.261E-13 -.224E-14 -.425E+00   0.136E-20 0.109E-20 -.548E-02   0.129E-12 -.279E-13 0.220E+00
   0.668E-12 0.559E-11 -.213E+00   -.345E-13 -.969E-14 0.425E+00   -.157E-20 -.122E-20 0.548E-02   0.127E-12 -.265E-13 -.220E+00
   0.684E-12 -.181E-14 0.295E+00   0.592E-13 -.768E-14 -.491E+00   0.106E-20 0.294E-20 -.731E-02   0.144E-12 -.257E-13 0.200E+00
   0.680E-12 0.100E-14 0.101E-10   0.437E-13 0.142E-13 0.568E-13   -.306E-24 0.901E-24 -.130E-23   0.146E-12 -.227E-13 0.177E-11
   0.681E-12 0.384E-14 -.295E+00   0.460E-13 -.783E-14 0.491E+00   -.265E-20 0.123E-21 0.731E-02   0.141E-12 -.211E-13 -.200E+00
   0.244E-14 -.569E-15 -.474E-13   -.334E-13 -.367E-13 0.000E+00   -.189E-24 0.424E-26 -.486E-24   -.752E-13 0.452E-14 -.781E-12
   0.229E-14 -.875E-16 0.984E-01   -.482E-13 -.154E-13 -.264E+00   0.580E-21 -.340E-21 0.865E-02   -.756E-13 0.522E-14 0.163E+00
   0.233E-14 -.525E-15 -.984E-01   0.623E-13 0.777E-14 0.264E+00   -.135E-20 0.323E-21 -.865E-02   -.755E-13 0.249E-14 -.163E+00
 -----------------------------------------------------------------------------------------------
   0.401E-11 0.222E-10 0.818E-11   0.464E-13 -.410E-13 -.149E-12   -.292E-20 0.656E-20 0.000E+00   -.500E-13 -.225E-12 0.383E-12
 
 
 POSITION                                       TOTAL-FORCE (eV/Angst)
 -----------------------------------------------------------------------------------
      0.00000      1.92799      1.92824        -0.000000     -0.000000     -0.003247
      0.00000      1.92799      5.78401        -0.000000     -0.000000      0.000000
      0.00000      1.92799      9.63978        -0.000000      0.000000      0.003247
      1.92799      1.92799      0.00000         0.000000      0.000000      0.000000
      1.92799      1.92799      3.85623        -0.000000     -0.000000      0.002441
      1.92799      1.92799      7.71178         0.000000      0.000000     -0.002441
      1.92799      0.00000      1.92824         0.000000      0.000000     -0.003247
      1.92799      0.00000      5.78401        -0.000000      0.000000      0.000000
      1.92799      0.00000      9.63978        -0.000000      0.000000      0.003247
      0.00000      0.00000      0.00000        -0.000000      0.000000      0.000000
      0.00000      0.00000      3.85614        -0.000000      0.000000      0.006035
      0.00000      0.00000      7.71188        -0.000000      0.000000     -0.006035
 -----------------------------------------------------------------------------------
    total drift:                                0.000000      0.000000      0.000000


--------------------------------------------------------------------------------------------------------



  FREE ENERGIE OF THE ION-ELECTRON SYSTEM (eV)
  ---------------------------------------------------
  free  energy   TOTEN  =       -92.79986814 eV

  energy  without entropy=      -92.79986814  energy(sigma->0) =      -92.79986814
 


--------------------------------------------------------------------------------------------------------


    POTLOK:  cpu time      0.0390: real time      0.0410


--------------------------------------------------------------------------------------------------------


     LOOP+:  cpu time    185.7468: real time    187.1773
 -----------------------------------------------------------------------------
|                                                                             |
|           W    W    AA    RRRRR   N    N  II  N    N   GGGG   !!!           |
|           W    W   A  A   R    R  NN   N  II  NN   N  G    G  !!!           |
|           W    W  A    A  R    R  N N  N  II  N N  N  G       !!!           |
|           W WW W  AAAAAA  RRRRR   N  N N  II  N  N N  G  GGG   !            |
|           WW  WW  A    A  R   R   N   NN  II  N   NN  G    G                |
|           W    W  A    A  R    R  N    N  II  N    N   GGGG   !!!           |
|                                                                             |
|     Tetrahedron method does not include variations of the Fermi             |
|     occupations, so forces and stress will be inaccurate. We suggest        |
|     using a different smearing scheme ISMEAR = 1 or 2 for metals in         |
|     relaxations.                                                            |
|                                                                             |
 -----------------------------------------------------------------------------

    4ORBIT:  cpu time      0.0000: real time      0.0000



 total charge

# of ion       s       p       d       tot
------------------------------------------
    1        0.322   6.274   5.969  12.565
    2        0.322   6.274   5.968  12.563
    3        0.322   6.274   5.969  12.565
    4        0.322   6.273   5.970  12.566
    5        0.322   6.274   5.967  12.563
    6        0.322   6.274   5.967  12.563
    7        0.322   6.274   5.969  12.565
    8        0.322   6.274   5.968  12.563
    9        0.322   6.274   5.969  12.565
   10        0.714   0.592   8.000   9.306
   11        0.714   0.593   8.001   9.307
   12        0.714   0.593   8.001   9.307
--------------------------------------------------
tot          5.039  58.240  77.718 140.998



 magnetization (x)

# of ion       s       p       d       tot
------------------------------------------
    1       -0.000  -0.017   2.898   2.881
    2        0.000  -0.017   2.899   2.883
    3       -0.000  -0.017   2.898   2.881
    4        0.000  -0.017   2.894   2.877
    5        0.000  -0.017   2.897   2.880
    6        0.000  -0.017   2.897   2.880
    7       -0.000  -0.017   2.898   2.881
    8        0.000  -0.017   2.899   2.883
    9       -0.000  -0.017   2.898   2.881
   10       -0.042  -0.097   0.429   0.290
   11       -0.042  -0.097   0.430   0.290
   12       -0.042  -0.097   0.430   0.290
--------------------------------------------------
tot         -0.126  -0.445  27.368  26.797
 
 BZINTS: Fermi energy:    8.486172;  156.000000 electrons
         Band energy:-0.181488E+04;  BLOECHL correction:   -0.078197

 total amount of memory used by VASP MPI-rank0   206243. kBytes
=======================================================================

   base      :      30000. kBytes
   nonl-proj :     113922. kBytes
   fftplans  :       1055. kBytes
   grid      :       8252. kBytes
   one-center:        373. kBytes
   wavefun   :      52641. kBytes
 
  
  
 General timing and accounting informations for this job:
 ========================================================
  
                  Total CPU time used (sec):      206.002
                            User time (sec):      198.274
                          System time (sec):        7.728
                         Elapsed time (sec):      213.511
  
                   Maximum memory used (kb):      857396.
                   Average memory used (kb):          N/A
  
                          Minor page faults:       179189
                          Major page faults:          153
                 Voluntary context switches:         7410
