 vasp.6.4.3 19Mar24 (build Mar 26 2024 14:05:37) complex                        
  
 executed on             LinuxIFC date 2024.12.16  06:32:48
 running  128 mpi-ranks, on    1 nodes
 distrk:  each k-point on   32 cores,    4 groups
 distr:  one band on NCORE=   1 cores,   32 groups


--------------------------------------------------------------------------------------------------------


 INCAR:
   ALGO = All
   EDIFF = 1e-06
   EDIFFG = -0.01
   ENCUT = 520
   GGA = Pe
   IBRION = 2
   ISIF = 4
   ISMEAR = 1
   ISPIN = 2
   KPAR = 4
   LCHARG = True
   LORBIT = 11
   LREAL = False
   LWAVE = False
   MAGMOM = 9*2.898 3*0.299
   NELM = 200
   NSW = 100
   PREC = Accurate
   SIGMA = 0.2

 POTCAR:    PAW_PBE Fe_pv 02Aug2007               
 POTCAR:    PAW_PBE Pt 04Feb2005                  
 -----------------------------------------------------------------------------
|                                                                             |
|           W    W    AA    RRRRR   N    N  II  N    N   GGGG   !!!           |
|           W    W   A  A   R    R  NN   N  II  NN   N  G    G  !!!           |
|           W    W  A    A  R    R  N N  N  II  N N  N  G       !!!           |
|           W WW W  AAAAAA  RRRRR   N  N N  II  N  N N  G  GGG   !            |
|           WW  WW  A    A  R   R   N   NN  II  N   NN  G    G                |
|           W    W  A    A  R    R  N    N  II  N    N   GGGG   !!!           |
|                                                                             |
|     For optimal performance we recommend to set                             |
|       NCORE = 2 up to number-of-cores-per-socket                            |
|     NCORE specifies how many cores store one orbital (NPAR=cpu/NCORE).      |
|     This setting can greatly improve the performance of VASP for DFT.       |
|     The default, NCORE=1 might be grossly inefficient on modern             |
|     multi-core architectures or massively parallel machines. Do your        |
|     own testing! More info at https://www.vasp.at/wiki/index.php/NCORE      |
|     Unfortunately you need to use the default for GW and RPA                |
|     calculations (for HF NCORE is supported but not extensively tested      |
|     yet).                                                                   |
|                                                                             |
 -----------------------------------------------------------------------------

 POTCAR:    PAW_PBE Fe_pv 02Aug2007               
   SHA256 =  5d22e414b1f82158bf2c7ecb8b97b28fd0923e48cadc1c3bf74d524558f5dd32 Fe_pv/POTCAR          
   COPYR  = (c) Copyright 02Aug2007 Georg Kresse                                                    
   COPYR  = This file is part of the software VASP. Any use, copying, and all other rights are regul
   COPYR  = If you do not have a valid VASP license, you may not use, copy or distribute this file. 
   VRHFIN =Fe:  3pd7s1                                                                              
   LEXCH  = PE                                                                                      
   EATOM  =  2457.4239 eV,  180.6156 Ry                                                             
                                                                                                    
   TITEL  = PAW_PBE Fe_pv 02Aug2007                                                                 
   LULTRA =        F    use ultrasoft PP ?                                                          
   IUNSCR =        1    unscreen: 0-lin 1-nonlin 2-no                                               
   RPACOR =    1.750    partial core radius                                                         
   POMASS =   55.847; ZVAL   =   14.000    mass and valenz                                          
   RCORE  =    2.200    outmost cutoff radius                                                       
   RWIGS  =    2.200; RWIGS  =    1.164    wigner-seitz radius (au A)                               
   ENMAX  =  293.238; ENMIN  =  219.928 eV                                                          
   ICORE  =        3    local potential                                                             
   LCOR   =        T    correct aug charges                                                         
   LPAW   =        T    paw PP                                                                      
   EAUG   =  578.342                                                                                
   DEXC   =    0.000                                                                                
   RMAX   =    2.249    core radius for proj-oper                                                   
   RAUG   =    1.300    factor for augmentation sphere                                              
   RDEP   =    2.296    radius for radial grids                                                     
   RDEPT  =    1.766    core radius for aug-charge                                                  
                                                                                                    
   Atomic configuration                                                                             
    8 entries                                                                                       
     n  l   j            E        occ.                                                              
     1  0  0.50     -6993.8440   2.0000                                                             
     2  0  0.50      -814.6047   2.0000                                                             
     2  1  1.50      -693.3689   6.0000                                                             
     3  0  0.50       -89.4732   2.0000                                                             
     3  1  1.50       -55.6373   6.0000                                                             
     3  2  2.50        -3.8151   7.0000                                                             
     4  0  0.50        -4.2551   1.0000                                                             
     4  3  2.50        -1.3606   0.0000                                                             
   Description                                                                                      
     l       E           TYP  RCUT    TYP  RCUT                                                     
     1    -55.6372668     23  2.000                                                                 
     1     -5.4423304     23  2.000                                                                 
     2     -3.8151096     23  2.200                                                                 
     2     -5.1756922     23  2.200                                                                 
     0     -4.2550951     23  2.200                                                                 
     0     27.2116520     23  2.200                                                                 
     3     -1.3605826     23  2.200                                                                 
  local pseudopotential read in
  partial core-charges read in
  partial kinetic energy density read in
  atomic valenz-charges read in
  non local Contribution for L=           1  read in
    real space projection operators read in
  non local Contribution for L=           1  read in
    real space projection operators read in
  non local Contribution for L=           2  read in
    real space projection operators read in
  non local Contribution for L=           2  read in
    real space projection operators read in
  non local Contribution for L=           0  read in
    real space projection operators read in
  non local Contribution for L=           0  read in
    real space projection operators read in
    PAW grid and wavefunctions read in
 
   number of l-projection  operators is LMAX  =           6
   number of lm-projection operators is LMMAX =          18
 
 POTCAR:    PAW_PBE Pt 04Feb2005                  
   SHA256 =  3ed90460adef76debcff1cfb73ee1349b515b1a3db03439735b44de3a8db7dc8 Pt/POTCAR             
   COPYR  = (c) Copyright 04Feb2005 Georg Kresse                                                    
   COPYR  = This file is part of the software VASP. Any use, copying, and all other rights are regul
   COPYR  = If you do not have a valid VASP license, you may not use, copy or distribute this file. 
   VRHFIN =Pt: s1d9                                                                                 
   LEXCH  = PE                                                                                      
   EATOM  =   729.1176 eV,   53.5886 Ry                                                             
                                                                                                    
   TITEL  = PAW_PBE Pt 04Feb2005                                                                    
   LULTRA =        F    use ultrasoft PP ?                                                          
   IUNSCR =        1    unscreen: 0-lin 1-nonlin 2-no                                               
   RPACOR =    2.330    partial core radius                                                         
   POMASS =  195.080; ZVAL   =   10.000    mass and valenz                                          
   RCORE  =    2.600    outmost cutoff radius                                                       
   RWIGS  =    2.750; RWIGS  =    1.455    wigner-seitz radius (au A)                               
   ENMAX  =  230.283; ENMIN  =  172.712 eV                                                          
   ICORE  =        3    local potential                                                             
   LCOR   =        T    correct aug charges                                                         
   LPAW   =        T    paw PP                                                                      
   EAUG   =  358.966                                                                                
   DEXC   =    0.000                                                                                
   RMAX   =    2.658    core radius for proj-oper                                                   
   RAUG   =    1.300    factor for augmentation sphere                                              
   RDEP   =    2.761    radius for radial grids                                                     
   RDEPT  =    2.203    core radius for aug-charge                                                  
                                                                                                    
   Atomic configuration                                                                             
   16 entries                                                                                       
     n  l   j            E        occ.                                                              
     1  0  0.50    -78401.1885   2.0000                                                             
     2  0  0.50    -13770.7750   2.0000                                                             
     2  1  1.50    -11931.0468   6.0000                                                             
     3  0  0.50     -3234.7234   2.0000                                                             
     3  1  1.50     -2699.2216   6.0000                                                             
     3  2  2.50     -2119.5714  10.0000                                                             
     4  0  0.50      -695.1528   2.0000                                                             
     4  1  1.50      -519.6034   6.0000                                                             
     4  2  2.50      -306.6786  10.0000                                                             
     4  3  3.50       -70.1041  14.0000                                                             
     5  0  0.50      -101.7747   2.0000                                                             
     5  1  1.50       -55.9873   6.0000                                                             
     5  2  2.50        -6.1423   9.0000                                                             
     6  0  0.50        -5.6573   1.0000                                                             
     6  1  1.50        -6.8029   0.0000                                                             
     5  3  2.50        -1.3606   0.0000                                                             
   Description                                                                                      
     l       E           TYP  RCUT    TYP  RCUT                                                     
     2     -6.1423404     23  2.500                                                                 
     2     -7.5029230     23  2.500                                                                 
     0     -5.6573207     23  2.500                                                                 
     0      0.7416693     23  2.500                                                                 
     1     -2.7211652     23  2.600                                                                 
     1     20.4087390     23  2.600                                                                 
     3     -1.3605826     23  2.500                                                                 
  local pseudopotential read in
  partial core-charges read in
  partial kinetic energy density read in
  atomic valenz-charges read in
  non local Contribution for L=           2  read in
    real space projection operators read in
  non local Contribution for L=           2  read in
    real space projection operators read in
  non local Contribution for L=           0  read in
    real space projection operators read in
  non local Contribution for L=           0  read in
    real space projection operators read in
  non local Contribution for L=           1  read in
    real space projection operators read in
  non local Contribution for L=           1  read in
    real space projection operators read in
    PAW grid and wavefunctions read in
 
   number of l-projection  operators is LMAX  =           6
   number of lm-projection operators is LMMAX =          18
 
  PAW_PBE Fe_pv 02Aug2007               :
 energy of atom  1       EATOM=-2457.4239
 kinetic energy error for atom=    0.0062 (will be added to EATOM!!)
  PAW_PBE Pt 04Feb2005                  :
 energy of atom  2       EATOM= -729.1176
 kinetic energy error for atom=    0.0032 (will be added to EATOM!!)
 
 
 POSCAR: Fe9 Pt3
  positions in direct lattice
  velocities in cartesian coordinates


 exchange-correlation table for PE
   RHO(1)=    0.500       N(1)  =     2000
   RHO(2)=  100.500       N(2)  =     4000
 


--------------------------------------------------------------------------------------------------------


 ion  position               nearest neighbor table
   1  0.000  0.500  0.167-  11 2.73  11 2.73   7 2.73   7 2.73   7 2.73   7 2.73   5 2.73   5 2.73
                             4 2.73  10 2.73  10 2.73   4 2.73
   2  0.000  0.500  0.500-   5 2.73   6 2.73   5 2.73   6 2.73  11 2.73  12 2.73  11 2.73  12 2.73
                             8 2.73   8 2.73   8 2.73   8 2.73
   3  0.000  0.500  0.833-  12 2.73  12 2.73   9 2.73   9 2.73   9 2.73   9 2.73   6 2.73   6 2.73
                             4 2.73  10 2.73  10 2.73   4 2.73
   4  0.500  0.500  0.000-  10 2.73  10 2.73  10 2.73  10 2.73   1 2.73   7 2.73   9 2.73   3 2.73
                             1 2.73   3 2.73   7 2.73   9 2.73
   5  0.500  0.500  0.333-   2 2.73   8 2.73   8 2.73   2 2.73  11 2.73  11 2.73  11 2.73  11 2.73
                             1 2.73   7 2.73   1 2.73   7 2.73
   6  0.500  0.500  0.667-   2 2.73   8 2.73   8 2.73   2 2.73  12 2.73  12 2.73  12 2.73  12 2.73
                             9 2.73   3 2.73   9 2.73   3 2.73
   7  0.500  0.000  0.167-  11 2.73  11 2.73   1 2.73   1 2.73   1 2.73   1 2.73   5 2.73   5 2.73
                            10 2.73  10 2.73   4 2.73   4 2.73
   8  0.500  0.000  0.500-   5 2.73   6 2.73   5 2.73   6 2.73  11 2.73  12 2.73  11 2.73  12 2.73
                             2 2.73   2 2.73   2 2.73   2 2.73
   9  0.500  0.000  0.833-  12 2.73  12 2.73   3 2.73   3 2.73   3 2.73   3 2.73   6 2.73   6 2.73
                            10 2.73  10 2.73   4 2.73   4 2.73
  10  0.000  0.000  0.000-   4 2.73   4 2.73   4 2.73   4 2.73   9 2.73   1 2.73   3 2.73   3 2.73
                             1 2.73   7 2.73   9 2.73   7 2.73
  11  0.000  0.000  0.333-   2 2.73   8 2.73   2 2.73   8 2.73   1 2.73   7 2.73   7 2.73   1 2.73
                             5 2.73   5 2.73   5 2.73   5 2.73
  12  0.000  0.000  0.667-   2 2.73   8 2.73   2 2.73   8 2.73   3 2.73   3 2.73   9 2.73   9 2.73
                             6 2.73   6 2.73   6 2.73   6 2.73
 
  LATTYP: Found a simple tetragonal cell.
 ALAT       =     3.8559803367
 C/A-ratio  =     3.0000190685
  
  Lattice vectors:
  
 A1 = (   3.8559803367,   0.0000000000,   0.0000000000)
 A2 = (   0.0000000000,   3.8559803367,   0.0000000000)
 A3 = (   0.0000000000,   0.0000000000,  11.5680145380)


Analysis of symmetry for initial positions (statically):
=====================================================================
 Subroutine PRICEL returns:
 Original cell was already a primitive cell.
 

 Routine SETGRP: Setting up the symmetry group for a 
 simple tetragonal supercell.


 Subroutine GETGRP returns: Found 16 space group operations
 (whereof 16 operations were pure point group operations)
 out of a pool of 16 trial point group operations.


The static configuration has the point symmetry D_4h.


Analysis of symmetry for dynamics (positions and initial velocities):
=====================================================================
 Subroutine PRICEL returns:
 Original cell was already a primitive cell.
 

 Routine SETGRP: Setting up the symmetry group for a 
 simple tetragonal supercell.


 Subroutine GETGRP returns: Found 16 space group operations
 (whereof 16 operations were pure point group operations)
 out of a pool of 16 trial point group operations.


The dynamic configuration has the point symmetry D_4h.


Analysis of structural, dynamic, and magnetic symmetry:
=====================================================================
 Subroutine PRICEL returns:
 Original cell was already a primitive cell.
 

 Routine SETGRP: Setting up the symmetry group for a 
 simple tetragonal supercell.


 Subroutine GETGRP returns: Found 16 space group operations
 (whereof 16 operations were pure point group operations)
 out of a pool of 16 trial point group operations.


The overall configuration has the point symmetry D_4h.


 Subroutine INISYM returns: Found 16 space group operations
 (whereof 16 operations are pure point group operations),
 and found     1 'primitive' translations


----------------------------------------------------------------------------------------

                                     Primitive cell                                     

  volume of cell :     172.0000

  direct lattice vectors                    reciprocal lattice vectors
     3.855980337  0.000000000  0.000000000     0.259337422  0.000000000  0.000000000
     0.000000000  3.855980337  0.000000000     0.000000000  0.259337422  0.000000000
     0.000000000  0.000000000 11.568014538     0.000000000  0.000000000  0.086445258

  length of vectors
     3.855980337  3.855980337 11.568014538     0.259337422  0.259337422  0.086445258

  position of ions in fractional coordinates (direct lattice)
     0.000000000  0.500000000  0.166686884
     0.000000000  0.500000000  0.500000000
     0.000000000  0.500000000  0.833313116
     0.500000000  0.500000000  0.000000000
     0.500000000  0.500000000  0.333352809
     0.500000000  0.500000000  0.666647191
     0.500000000  0.000000000  0.166686884
     0.500000000  0.000000000  0.500000000
     0.500000000  0.000000000  0.833313116
     0.000000000  0.000000000  0.000000000
     0.000000000  0.000000000  0.333344599
     0.000000000  0.000000000  0.666655401

  ion indices of the primitive-cell ions
   primitive index   ion index
                 1           1
                 2           2
                 3           3
                 4           4
                 5           5
                 6           6
                 7           7
                 8           8
                 9           9
                10          10
                11          11
                12          12

----------------------------------------------------------------------------------------

 
 
 KPOINTS: pymatgen with grid density = 8800 / numb

Automatic generation of k-mesh.
 Grid dimensions read from file:
 generate k-points for:   13   13    4

 Generating k-lattice:

  Cartesian coordinates                     Fractional coordinates (reciprocal lattice)
     0.019949032  0.000000000  0.000000000     0.076923077  0.000000000  0.000000000
     0.000000000  0.019949032  0.000000000     0.000000000  0.076923077  0.000000000
     0.000000000  0.000000000  0.021611314     0.000000000  0.000000000  0.250000000

  Length of vectors
     0.019949032  0.019949032  0.021611314

  Shift w.r.t. Gamma in fractional coordinates (k-lattice)
     0.000000000  0.000000000  0.000000000

 
 Subroutine IBZKPT returns following result:
 ===========================================
 
 Found     84 irreducible k-points:
 
 Following reciprocal coordinates:
            Coordinates               Weight
  0.000000  0.000000  0.000000      1.000000
  0.076923  0.000000  0.000000      4.000000
  0.153846  0.000000  0.000000      4.000000
  0.230769  0.000000  0.000000      4.000000
  0.307692  0.000000  0.000000      4.000000
  0.384615  0.000000  0.000000      4.000000
  0.461538  0.000000  0.000000      4.000000
  0.076923  0.076923  0.000000      4.000000
  0.153846  0.076923  0.000000      8.000000
  0.230769  0.076923  0.000000      8.000000
  0.307692  0.076923  0.000000      8.000000
  0.384615  0.076923  0.000000      8.000000
  0.461538  0.076923  0.000000      8.000000
  0.153846  0.153846  0.000000      4.000000
  0.230769  0.153846  0.000000      8.000000
  0.307692  0.153846  0.000000      8.000000
  0.384615  0.153846  0.000000      8.000000
  0.461538  0.153846  0.000000      8.000000
  0.230769  0.230769  0.000000      4.000000
  0.307692  0.230769  0.000000      8.000000
  0.384615  0.230769  0.000000      8.000000
  0.461538  0.230769  0.000000      8.000000
  0.307692  0.307692  0.000000      4.000000
  0.384615  0.307692  0.000000      8.000000
  0.461538  0.307692  0.000000      8.000000
  0.384615  0.384615  0.000000      4.000000
  0.461538  0.384615  0.000000      8.000000
  0.461538  0.461538  0.000000      4.000000
  0.000000  0.000000  0.250000      2.000000
  0.076923  0.000000  0.250000      8.000000
  0.153846  0.000000  0.250000      8.000000
  0.230769  0.000000  0.250000      8.000000
  0.307692  0.000000  0.250000      8.000000
  0.384615  0.000000  0.250000      8.000000
  0.461538  0.000000  0.250000      8.000000
  0.076923  0.076923  0.250000      8.000000
  0.153846  0.076923  0.250000     16.000000
  0.230769  0.076923  0.250000     16.000000
  0.307692  0.076923  0.250000     16.000000
  0.384615  0.076923  0.250000     16.000000
  0.461538  0.076923  0.250000     16.000000
  0.153846  0.153846  0.250000      8.000000
  0.230769  0.153846  0.250000     16.000000
  0.307692  0.153846  0.250000     16.000000
  0.384615  0.153846  0.250000     16.000000
  0.461538  0.153846  0.250000     16.000000
  0.230769  0.230769  0.250000      8.000000
  0.307692  0.230769  0.250000     16.000000
  0.384615  0.230769  0.250000     16.000000
  0.461538  0.230769  0.250000     16.000000
  0.307692  0.307692  0.250000      8.000000
  0.384615  0.307692  0.250000     16.000000
  0.461538  0.307692  0.250000     16.000000
  0.384615  0.384615  0.250000      8.000000
  0.461538  0.384615  0.250000     16.000000
  0.461538  0.461538  0.250000      8.000000
  0.000000  0.000000  0.500000      1.000000
  0.076923  0.000000  0.500000      4.000000
  0.153846  0.000000  0.500000      4.000000
  0.230769  0.000000  0.500000      4.000000
  0.307692  0.000000  0.500000      4.000000
  0.384615  0.000000  0.500000      4.000000
  0.461538  0.000000  0.500000      4.000000
  0.076923  0.076923  0.500000      4.000000
  0.153846  0.076923  0.500000      8.000000
  0.230769  0.076923  0.500000      8.000000
  0.307692  0.076923  0.500000      8.000000
  0.384615  0.076923  0.500000      8.000000
  0.461538  0.076923  0.500000      8.000000
  0.153846  0.153846  0.500000      4.000000
  0.230769  0.153846  0.500000      8.000000
  0.307692  0.153846  0.500000      8.000000
  0.384615  0.153846  0.500000      8.000000
  0.461538  0.153846  0.500000      8.000000
  0.230769  0.230769  0.500000      4.000000
  0.307692  0.230769  0.500000      8.000000
  0.384615  0.230769  0.500000      8.000000
  0.461538  0.230769  0.500000      8.000000
  0.307692  0.307692  0.500000      4.000000
  0.384615  0.307692  0.500000      8.000000
  0.461538  0.307692  0.500000      8.000000
  0.384615  0.384615  0.500000      4.000000
  0.461538  0.384615  0.500000      8.000000
  0.461538  0.461538  0.500000      4.000000
 
 Following cartesian coordinates:
            Coordinates               Weight
  0.000000  0.000000  0.000000      1.000000
  0.019949  0.000000  0.000000      4.000000
  0.039898  0.000000  0.000000      4.000000
  0.059847  0.000000  0.000000      4.000000
  0.079796  0.000000  0.000000      4.000000
  0.099745  0.000000  0.000000      4.000000
  0.119694  0.000000  0.000000      4.000000
  0.019949  0.019949  0.000000      4.000000
  0.039898  0.019949  0.000000      8.000000
  0.059847  0.019949  0.000000      8.000000
  0.079796  0.019949  0.000000      8.000000
  0.099745  0.019949  0.000000      8.000000
  0.119694  0.019949  0.000000      8.000000
  0.039898  0.039898  0.000000      4.000000
  0.059847  0.039898  0.000000      8.000000
  0.079796  0.039898  0.000000      8.000000
  0.099745  0.039898  0.000000      8.000000
  0.119694  0.039898  0.000000      8.000000
  0.059847  0.059847  0.000000      4.000000
  0.079796  0.059847  0.000000      8.000000
  0.099745  0.059847  0.000000      8.000000
  0.119694  0.059847  0.000000      8.000000
  0.079796  0.079796  0.000000      4.000000
  0.099745  0.079796  0.000000      8.000000
  0.119694  0.079796  0.000000      8.000000
  0.099745  0.099745  0.000000      4.000000
  0.119694  0.099745  0.000000      8.000000
  0.119694  0.119694  0.000000      4.000000
  0.000000  0.000000  0.021611      2.000000
  0.019949  0.000000  0.021611      8.000000
  0.039898  0.000000  0.021611      8.000000
  0.059847  0.000000  0.021611      8.000000
  0.079796  0.000000  0.021611      8.000000
  0.099745  0.000000  0.021611      8.000000
  0.119694  0.000000  0.021611      8.000000
  0.019949  0.019949  0.021611      8.000000
  0.039898  0.019949  0.021611     16.000000
  0.059847  0.019949  0.021611     16.000000
  0.079796  0.019949  0.021611     16.000000
  0.099745  0.019949  0.021611     16.000000
  0.119694  0.019949  0.021611     16.000000
  0.039898  0.039898  0.021611      8.000000
  0.059847  0.039898  0.021611     16.000000
  0.079796  0.039898  0.021611     16.000000
  0.099745  0.039898  0.021611     16.000000
  0.119694  0.039898  0.021611     16.000000
  0.059847  0.059847  0.021611      8.000000
  0.079796  0.059847  0.021611     16.000000
  0.099745  0.059847  0.021611     16.000000
  0.119694  0.059847  0.021611     16.000000
  0.079796  0.079796  0.021611      8.000000
  0.099745  0.079796  0.021611     16.000000
  0.119694  0.079796  0.021611     16.000000
  0.099745  0.099745  0.021611      8.000000
  0.119694  0.099745  0.021611     16.000000
  0.119694  0.119694  0.021611      8.000000
  0.000000  0.000000  0.043223      1.000000
  0.019949  0.000000  0.043223      4.000000
  0.039898  0.000000  0.043223      4.000000
  0.059847  0.000000  0.043223      4.000000
  0.079796  0.000000  0.043223      4.000000
  0.099745  0.000000  0.043223      4.000000
  0.119694  0.000000  0.043223      4.000000
  0.019949  0.019949  0.043223      4.000000
  0.039898  0.019949  0.043223      8.000000
  0.059847  0.019949  0.043223      8.000000
  0.079796  0.019949  0.043223      8.000000
  0.099745  0.019949  0.043223      8.000000
  0.119694  0.019949  0.043223      8.000000
  0.039898  0.039898  0.043223      4.000000
  0.059847  0.039898  0.043223      8.000000
  0.079796  0.039898  0.043223      8.000000
  0.099745  0.039898  0.043223      8.000000
  0.119694  0.039898  0.043223      8.000000
  0.059847  0.059847  0.043223      4.000000
  0.079796  0.059847  0.043223      8.000000
  0.099745  0.059847  0.043223      8.000000
  0.119694  0.059847  0.043223      8.000000
  0.079796  0.079796  0.043223      4.000000
  0.099745  0.079796  0.043223      8.000000
  0.119694  0.079796  0.043223      8.000000
  0.099745  0.099745  0.043223      4.000000
  0.119694  0.099745  0.043223      8.000000
  0.119694  0.119694  0.043223      4.000000
 


--------------------------------------------------------------------------------------------------------




 Dimension of arrays:
   k-points           NKPTS =     84   k-points in BZ     NKDIM =     84   number of bands    NBANDS=    128
   number of dos      NEDOS =    301   number of ions     NIONS =     12
   non local maximal  LDIM  =      6   non local SUM 2l+1 LMDIM =     18
   total plane-waves  NPLWV =  81000
   max r-space proj   IRMAX =      1   max aug-charges    IRDMAX=  28719
   dimension x,y,z NGX =    30 NGY =   30 NGZ =   90
   dimension x,y,z NGXF=    60 NGYF=   60 NGZF=  180
   support grid    NGXF=    60 NGYF=   60 NGZF=  180
   ions per type =               9   3
   NGX,Y,Z   is equivalent  to a cutoff of  12.93, 12.93, 12.93 a.u.
   NGXF,Y,Z  is equivalent  to a cutoff of  25.87, 25.87, 25.87 a.u.

 SYSTEM =  unknown system                          
 POSCAR =  Fe9 Pt3                                 

 Startparameter for this run:
   NWRITE =      2    write-flag & timer
   PREC   = accura    normal or accurate (medium, high low for compatibility)
   ISTART =      0    job   : 0-new  1-cont  2-samecut
   ICHARG =      2    charge: 1-file 2-atom 10-const
   ISPIN  =      2    spin polarized calculation?
   LNONCOLLINEAR =      F non collinear calculations
   LSORBIT =      F    spin-orbit coupling
   INIWAV =      1    electr: 0-lowe 1-rand  2-diag
   LASPH  =      F    aspherical Exc in radial PAW
 Electronic Relaxation 1
   ENCUT  =  520.0 eV  38.22 Ry    6.18 a.u.   7.17  7.17 21.51*2*pi/ulx,y,z
   ENINI  =  520.0     initial cutoff
   ENAUG  =  578.3 eV  augmentation charge cutoff
   NELM   =    200;   NELMIN=  2; NELMDL=  0     # of ELM steps 
   EDIFF  = 0.1E-05   stopping-criterion for ELM
   LREAL  =      F    real-space projection
   NLSPLINE    = F    spline interpolate recip. space projectors
   LCOMPAT=      F    compatible to vasp.4.4
   GGA_COMPAT  = T    GGA compatible to vasp.4.4-vasp.4.6
   LMAXPAW     = -100 max onsite density
   LMAXMIX     =    2 max onsite mixed and CHGCAR
   VOSKOWN=      0    Vosko Wilk Nusair interpolation
   ROPT   =    0.00000   0.00000
 Ionic relaxation
   EDIFFG = -.1E-01   stopping-criterion for IOM
   NSW    =    100    number of steps for IOM
   NBLOCK =      1;   KBLOCK =    100    inner block; outer block 
   IBRION =      2    ionic relax: 0-MD 1-quasi-New 2-CG
   NFREE  =      1    steps in history (QN), initial steepest desc. (CG)
   ISIF   =      4    stress and relaxation
   IWAVPR =     11    prediction:  0-non 1-charg 2-wave 3-comb
   ISYM   =      2    0-nonsym 1-usesym 2-fastsym
   LCORR  =      T    Harris-Foulkes like correction to forces

   POTIM  = 0.5000    time-step for ionic-motion
   TEIN   =    0.0    initial temperature
   TEBEG  =    0.0;   TEEND  =   0.0 temperature during run
   SMASS  =  -3.00    Nose mass-parameter (am)
   estimated Nose-frequenzy (Omega)   =  0.10E-29 period in steps = 0.13E+47 mass=  -0.340E-27a.u.
   SCALEE = 1.0000    scale energy and forces
   NPACO  =    256;   APACO  = 10.0  distance and # of slots for P.C.
   PSTRESS=    0.0 pullay stress

  Mass of Ions in am
   POMASS =  55.85195.08
  Ionic Valenz
   ZVAL   =  14.00 10.00
  Atomic Wigner-Seitz radii
   RWIGS  =  -1.00 -1.00
  virtual crystal weights 
   VCA    =   1.00  1.00
   NELECT =     156.0000    total number of electrons
   NUPDOWN=      -1.0000    fix difference up-down

 DOS related values:
   EMIN   =  10.00;   EMAX   =-10.00  energy-range for DOS
   EFERMI =   0.00;   METHOD = LEGACY      
   ISMEAR =     1;   SIGMA  =   0.20  broadening in eV -4-tet -1-fermi 0-gaus

 Electronic relaxation 2 (details)
   IALGO  =     58    algorithm
   LDIAG  =      T    sub-space diagonalisation (order eigenvalues)
   LSUBROT=      F    optimize rotation matrix (better conditioning)
   TURBO    =      0    0=normal 1=particle mesh
   IRESTART =      0    0=no restart 2=restart with 2 vectors
   NREBOOT  =      0    no. of reboots
   NMIN     =      0    reboot dimension
   EREF     =   0.00    reference energy to select bands
   IMIX   =      4    mixing-type and parameters
     AMIX     =   0.40;   BMIX     =  1.00
     AMIX_MAG =   1.60;   BMIX_MAG =  1.00
     AMIN     =   0.10
     WC   =   100.;   INIMIX=   1;  MIXPRE=   1;  MAXMIX= -45

 Intra band minimization:
   WEIMIN = 0.0010     energy-eigenvalue tresh-hold
   EBREAK =  0.20E-08  absolut break condition
   DEPER  =   0.30     relativ break condition  

   TIME   =   0.40     timestep for ELM

  volume/ion in A,a.u.               =      14.33        96.73
  Fermi-wavevector in a.u.,A,eV,Ry     =   1.584675  2.994602 34.166882  2.511195
  Thomas-Fermi vector in A             =   2.684256
 
 Write flags
   LWAVE        =      F    write WAVECAR
   LDOWNSAMPLE  =      F    k-point downsampling of WAVECAR
   LCHARG       =      T    write CHGCAR
   LVTOT        =      F    write LOCPOT, total local potential
   LVHAR        =      F    write LOCPOT, Hartree potential only
   WRT_POTENTIAL= false  ! write potential to hdf5 file
   LELF         =      F    write electronic localiz. function (ELF)
   LORBIT       =     11    0 simple, 1 ext, 2 COOP (PROOUT), +10 PAW based schemes


 Dipole corrections
   LMONO      =      F    monopole corrections only (constant potential shift)
   LDIPOL     =      F    correct potential (dipole corrections)
   IDIPOL     =      0    1-x, 2-y, 3-z, 4-all directions 
   EPSILON    =  1.0000000 bulk dielectric constant
   LVACPOTAV  =      F  vacuum potentials using an averaging scheme for the charge density
   VACPOTFLAT =  0.1000000 required flatness to determine vacuum potential
 Exchange correlation treatment:
   GGA     = PE    functional components
   XC_C    = 1    coefficients multiplying the functional components
   LIBXC   =     F    Libxc                    
   VOSKOWN =     0    Vosko Wilk Nusair interpolation
   LHFCALC =     F    Hartree Fock is set to
   LHFONE  =     F    Hartree Fock one center treatment
   AEXX    =    0.0000 exact exchange contribution

 Parameters of functionals:
   PE:
     No parameter
 
 Van der Waals corrections
   IVDW    =     0    specifies the selected vdW correction

 Linear response parameters
   LEPSILON=     F    determine dielectric tensor
   LRPA    =     F    only Hartree local field effects (RPA)
   LNABLA  =     F    use nabla operator in PAW spheres
   LVEL    =     F    velocity operator in full k-point grid
   CSHIFT  =0.1000    complex shift for real part using Kramers Kronig
   OMEGAMAX=  -1.0    maximum frequency
   DEG_THRESHOLD= 0.2000000E-02 threshold for treating states as degnerate
   RTIME   =   -0.100 relaxation time in fs
  (WPLASMAI=    0.000 imaginary part of plasma frequency in eV, 0.658/RTIME)
   DFIELD  = 0.0000000 0.0000000 0.0000000 field for delta impulse in time
 
  Optional k-point grid parameters
   LKPOINTS_OPT  =     F    use optional k-point grid
   KPOINTS_OPT_MODE=     1    mode for optional k-point grid
 
 Orbital magnetization related:
   ORBITALMAG=     F  switch on orbital magnetization
   LCHIMAG   =     F  perturbation theory with respect to B field
   DQ        =  0.001000  dq finite difference perturbation B field
   LLRAUG    =     F  two centre corrections for induced B field
   LBONE     =     F  B-component reconstruction in AE one-centre
   LVGVCALC  =     T  calculate vGv susceptibility
   LVGVAPPL  =     F  apply vGv susceptibility instead of pGv for G=0

 Random number generation:
   RANDOM_GENERATOR = DEFAULT
   PCG_SEED         = not used


--------------------------------------------------------------------------------------------------------


 conjugate gradient relaxation of ions
 charge density and potential will be updated during run
 spin polarized calculation
 Conjugate gradient for all bands (Freysoldt, et al. PRB 79, 241103 (2009))
 preconditioned conjugated gradient                                        
 perform sub-space diagonalisation
    before iterative eigenvector-optimisation
 modified Broyden-mixing scheme, WC =      100.0
 initial mixing is a Kerker type mixing with AMIX =  0.4000 and BMIX =      1.0000
 Hartree-type preconditioning will be used
 using additional bands           50
 reciprocal scheme for non local part
 use partial core corrections
 no Harris-corrections to forces 
 use gradient corrections 
 use of overlap-Matrix (Vanderbilt PP)
 Methfessel and Paxton  Order N= 1 SIGMA  =   0.20


--------------------------------------------------------------------------------------------------------


  energy-cutoff  :      520.00
  volume of cell :      172.00
      direct lattice vectors                 reciprocal lattice vectors
     3.855980337  0.000000000  0.000000000     0.259337422  0.000000000  0.000000000
     0.000000000  3.855980337  0.000000000     0.000000000  0.259337422  0.000000000
     0.000000000  0.000000000 11.568014538     0.000000000  0.000000000  0.086445258

  length of vectors
     3.855980337  3.855980337 11.568014538     0.259337422  0.259337422  0.086445258


 
 k-points in units of 2pi/SCALE and weight: pymatgen with grid density = 8800 / numb
   0.00000000  0.00000000  0.00000000       0.001
   0.01994903  0.00000000  0.00000000       0.006
   0.03989806  0.00000000  0.00000000       0.006
   0.05984710  0.00000000  0.00000000       0.006
   0.07979613  0.00000000  0.00000000       0.006
   0.09974516  0.00000000  0.00000000       0.006
   0.11969419  0.00000000  0.00000000       0.006
   0.01994903  0.01994903  0.00000000       0.006
   0.03989806  0.01994903  0.00000000       0.012
   0.05984710  0.01994903  0.00000000       0.012
   0.07979613  0.01994903  0.00000000       0.012
   0.09974516  0.01994903  0.00000000       0.012
   0.11969419  0.01994903  0.00000000       0.012
   0.03989806  0.03989806  0.00000000       0.006
   0.05984710  0.03989806  0.00000000       0.012
   0.07979613  0.03989806  0.00000000       0.012
   0.09974516  0.03989806  0.00000000       0.012
   0.11969419  0.03989806  0.00000000       0.012
   0.05984710  0.05984710  0.00000000       0.006
   0.07979613  0.05984710  0.00000000       0.012
   0.09974516  0.05984710  0.00000000       0.012
   0.11969419  0.05984710  0.00000000       0.012
   0.07979613  0.07979613  0.00000000       0.006
   0.09974516  0.07979613  0.00000000       0.012
   0.11969419  0.07979613  0.00000000       0.012
   0.09974516  0.09974516  0.00000000       0.006
   0.11969419  0.09974516  0.00000000       0.012
   0.11969419  0.11969419  0.00000000       0.006
   0.00000000  0.00000000  0.02161131       0.003
   0.01994903  0.00000000  0.02161131       0.012
   0.03989806  0.00000000  0.02161131       0.012
   0.05984710  0.00000000  0.02161131       0.012
   0.07979613  0.00000000  0.02161131       0.012
   0.09974516  0.00000000  0.02161131       0.012
   0.11969419  0.00000000  0.02161131       0.012
   0.01994903  0.01994903  0.02161131       0.012
   0.03989806  0.01994903  0.02161131       0.024
   0.05984710  0.01994903  0.02161131       0.024
   0.07979613  0.01994903  0.02161131       0.024
   0.09974516  0.01994903  0.02161131       0.024
   0.11969419  0.01994903  0.02161131       0.024
   0.03989806  0.03989806  0.02161131       0.012
   0.05984710  0.03989806  0.02161131       0.024
   0.07979613  0.03989806  0.02161131       0.024
   0.09974516  0.03989806  0.02161131       0.024
   0.11969419  0.03989806  0.02161131       0.024
   0.05984710  0.05984710  0.02161131       0.012
   0.07979613  0.05984710  0.02161131       0.024
   0.09974516  0.05984710  0.02161131       0.024
   0.11969419  0.05984710  0.02161131       0.024
   0.07979613  0.07979613  0.02161131       0.012
   0.09974516  0.07979613  0.02161131       0.024
   0.11969419  0.07979613  0.02161131       0.024
   0.09974516  0.09974516  0.02161131       0.012
   0.11969419  0.09974516  0.02161131       0.024
   0.11969419  0.11969419  0.02161131       0.012
   0.00000000  0.00000000  0.04322263       0.001
   0.01994903  0.00000000  0.04322263       0.006
   0.03989806  0.00000000  0.04322263       0.006
   0.05984710  0.00000000  0.04322263       0.006
   0.07979613  0.00000000  0.04322263       0.006
   0.09974516  0.00000000  0.04322263       0.006
   0.11969419  0.00000000  0.04322263       0.006
   0.01994903  0.01994903  0.04322263       0.006
   0.03989806  0.01994903  0.04322263       0.012
   0.05984710  0.01994903  0.04322263       0.012
   0.07979613  0.01994903  0.04322263       0.012
   0.09974516  0.01994903  0.04322263       0.012
   0.11969419  0.01994903  0.04322263       0.012
   0.03989806  0.03989806  0.04322263       0.006
   0.05984710  0.03989806  0.04322263       0.012
   0.07979613  0.03989806  0.04322263       0.012
   0.09974516  0.03989806  0.04322263       0.012
   0.11969419  0.03989806  0.04322263       0.012
   0.05984710  0.05984710  0.04322263       0.006
   0.07979613  0.05984710  0.04322263       0.012
   0.09974516  0.05984710  0.04322263       0.012
   0.11969419  0.05984710  0.04322263       0.012
   0.07979613  0.07979613  0.04322263       0.006
   0.09974516  0.07979613  0.04322263       0.012
   0.11969419  0.07979613  0.04322263       0.012
   0.09974516  0.09974516  0.04322263       0.006
   0.11969419  0.09974516  0.04322263       0.012
   0.11969419  0.11969419  0.04322263       0.006
 
 k-points in reciprocal lattice and weights: pymatgen with grid density = 8800 / numb
   0.00000000  0.00000000  0.00000000       0.001
   0.07692308  0.00000000  0.00000000       0.006
   0.15384615  0.00000000  0.00000000       0.006
   0.23076923  0.00000000  0.00000000       0.006
   0.30769231  0.00000000  0.00000000       0.006
   0.38461538  0.00000000  0.00000000       0.006
   0.46153846  0.00000000  0.00000000       0.006
   0.07692308  0.07692308  0.00000000       0.006
   0.15384615  0.07692308  0.00000000       0.012
   0.23076923  0.07692308  0.00000000       0.012
   0.30769231  0.07692308  0.00000000       0.012
   0.38461538  0.07692308  0.00000000       0.012
   0.46153846  0.07692308  0.00000000       0.012
   0.15384615  0.15384615  0.00000000       0.006
   0.23076923  0.15384615  0.00000000       0.012
   0.30769231  0.15384615  0.00000000       0.012
   0.38461538  0.15384615  0.00000000       0.012
   0.46153846  0.15384615  0.00000000       0.012
   0.23076923  0.23076923  0.00000000       0.006
   0.30769231  0.23076923  0.00000000       0.012
   0.38461538  0.23076923  0.00000000       0.012
   0.46153846  0.23076923  0.00000000       0.012
   0.30769231  0.30769231  0.00000000       0.006
   0.38461538  0.30769231  0.00000000       0.012
   0.46153846  0.30769231  0.00000000       0.012
   0.38461538  0.38461538  0.00000000       0.006
   0.46153846  0.38461538  0.00000000       0.012
   0.46153846  0.46153846  0.00000000       0.006
   0.00000000  0.00000000  0.25000000       0.003
   0.07692308  0.00000000  0.25000000       0.012
   0.15384615  0.00000000  0.25000000       0.012
   0.23076923  0.00000000  0.25000000       0.012
   0.30769231  0.00000000  0.25000000       0.012
   0.38461538  0.00000000  0.25000000       0.012
   0.46153846  0.00000000  0.25000000       0.012
   0.07692308  0.07692308  0.25000000       0.012
   0.15384615  0.07692308  0.25000000       0.024
   0.23076923  0.07692308  0.25000000       0.024
   0.30769231  0.07692308  0.25000000       0.024
   0.38461538  0.07692308  0.25000000       0.024
   0.46153846  0.07692308  0.25000000       0.024
   0.15384615  0.15384615  0.25000000       0.012
   0.23076923  0.15384615  0.25000000       0.024
   0.30769231  0.15384615  0.25000000       0.024
   0.38461538  0.15384615  0.25000000       0.024
   0.46153846  0.15384615  0.25000000       0.024
   0.23076923  0.23076923  0.25000000       0.012
   0.30769231  0.23076923  0.25000000       0.024
   0.38461538  0.23076923  0.25000000       0.024
   0.46153846  0.23076923  0.25000000       0.024
   0.30769231  0.30769231  0.25000000       0.012
   0.38461538  0.30769231  0.25000000       0.024
   0.46153846  0.30769231  0.25000000       0.024
   0.38461538  0.38461538  0.25000000       0.012
   0.46153846  0.38461538  0.25000000       0.024
   0.46153846  0.46153846  0.25000000       0.012
   0.00000000  0.00000000  0.50000000       0.001
   0.07692308  0.00000000  0.50000000       0.006
   0.15384615  0.00000000  0.50000000       0.006
   0.23076923  0.00000000  0.50000000       0.006
   0.30769231  0.00000000  0.50000000       0.006
   0.38461538  0.00000000  0.50000000       0.006
   0.46153846  0.00000000  0.50000000       0.006
   0.07692308  0.07692308  0.50000000       0.006
   0.15384615  0.07692308  0.50000000       0.012
   0.23076923  0.07692308  0.50000000       0.012
   0.30769231  0.07692308  0.50000000       0.012
   0.38461538  0.07692308  0.50000000       0.012
   0.46153846  0.07692308  0.50000000       0.012
   0.15384615  0.15384615  0.50000000       0.006
   0.23076923  0.15384615  0.50000000       0.012
   0.30769231  0.15384615  0.50000000       0.012
   0.38461538  0.15384615  0.50000000       0.012
   0.46153846  0.15384615  0.50000000       0.012
   0.23076923  0.23076923  0.50000000       0.006
   0.30769231  0.23076923  0.50000000       0.012
   0.38461538  0.23076923  0.50000000       0.012
   0.46153846  0.23076923  0.50000000       0.012
   0.30769231  0.30769231  0.50000000       0.006
   0.38461538  0.30769231  0.50000000       0.012
   0.46153846  0.30769231  0.50000000       0.012
   0.38461538  0.38461538  0.50000000       0.006
   0.46153846  0.38461538  0.50000000       0.012
   0.46153846  0.46153846  0.50000000       0.006
 
 position of ions in fractional coordinates (direct lattice) 
   0.00000000  0.50000000  0.16668688
   0.00000000  0.50000000  0.50000000
   0.00000000  0.50000000  0.83331312
   0.50000000  0.50000000  0.00000000
   0.50000000  0.50000000  0.33335281
   0.50000000  0.50000000  0.66664719
   0.50000000  0.00000000  0.16668688
   0.50000000  0.00000000  0.50000000
   0.50000000  0.00000000  0.83331312
   0.00000000  0.00000000  0.00000000
   0.00000000  0.00000000  0.33334460
   0.00000000  0.00000000  0.66665540
 
 position of ions in cartesian coordinates  (Angst):
   0.00000000  1.92799017  1.92823630
   0.00000000  1.92799017  5.78400727
   0.00000000  1.92799017  9.63977824
   1.92799017  1.92799017  0.00000000
   1.92799017  1.92799017  3.85623014
   1.92799017  1.92799017  7.71178439
   1.92799017  0.00000000  1.92823630
   1.92799017  0.00000000  5.78400727
   1.92799017  0.00000000  9.63977824
   0.00000000  0.00000000  0.00000000
   0.00000000  0.00000000  3.85613517
   0.00000000  0.00000000  7.71187937
 


--------------------------------------------------------------------------------------------------------


 k-point     1 :   0.0000 0.0000 0.0000  plane waves:    4619
 k-point     2 :   0.0769 0.0000 0.0000  plane waves:    4619
 k-point     3 :   0.1538 0.0000 0.0000  plane waves:    4629
 k-point     4 :   0.2308 0.0000 0.0000  plane waves:    4616
 k-point     5 :   0.3077 0.0000 0.0000  plane waves:    4642
 k-point     6 :   0.3846 0.0000 0.0000  plane waves:    4634
 k-point     7 :   0.4615 0.0000 0.0000  plane waves:    4642
 k-point     8 :   0.0769 0.0769 0.0000  plane waves:    4612
 k-point     9 :   0.1538 0.0769 0.0000  plane waves:    4611
 k-point    10 :   0.2308 0.0769 0.0000  plane waves:    4640
 k-point    11 :   0.3077 0.0769 0.0000  plane waves:    4648
 k-point    12 :   0.3846 0.0769 0.0000  plane waves:    4650
 k-point    13 :   0.4615 0.0769 0.0000  plane waves:    4651
 k-point    14 :   0.1538 0.1538 0.0000  plane waves:    4612
 k-point    15 :   0.2308 0.1538 0.0000  plane waves:    4639
 k-point    16 :   0.3077 0.1538 0.0000  plane waves:    4634
 k-point    17 :   0.3846 0.1538 0.0000  plane waves:    4637
 k-point    18 :   0.4615 0.1538 0.0000  plane waves:    4633
 k-point    19 :   0.2308 0.2308 0.0000  plane waves:    4644
 k-point    20 :   0.3077 0.2308 0.0000  plane waves:    4629
 k-point    21 :   0.3846 0.2308 0.0000  plane waves:    4629
 k-point    22 :   0.4615 0.2308 0.0000  plane waves:    4624
 k-point    23 :   0.3077 0.3077 0.0000  plane waves:    4642
 k-point    24 :   0.3846 0.3077 0.0000  plane waves:    4633
 k-point    25 :   0.4615 0.3077 0.0000  plane waves:    4636
 k-point    26 :   0.3846 0.3846 0.0000  plane waves:    4632
 k-point    27 :   0.4615 0.3846 0.0000  plane waves:    4639
 k-point    28 :   0.4615 0.4615 0.0000  plane waves:    4650
 k-point    29 :   0.0000 0.0000 0.2500  plane waves:    4607
 k-point    30 :   0.0769 0.0000 0.2500  plane waves:    4612
 k-point    31 :   0.1538 0.0000 0.2500  plane waves:    4619
 k-point    32 :   0.2308 0.0000 0.2500  plane waves:    4635
 k-point    33 :   0.3077 0.0000 0.2500  plane waves:    4639
 k-point    34 :   0.3846 0.0000 0.2500  plane waves:    4643
 k-point    35 :   0.4615 0.0000 0.2500  plane waves:    4640
 k-point    36 :   0.0769 0.0769 0.2500  plane waves:    4608
 k-point    37 :   0.1538 0.0769 0.2500  plane waves:    4618
 k-point    38 :   0.2308 0.0769 0.2500  plane waves:    4628
 k-point    39 :   0.3077 0.0769 0.2500  plane waves:    4630
 k-point    40 :   0.3846 0.0769 0.2500  plane waves:    4646
 k-point    41 :   0.4615 0.0769 0.2500  plane waves:    4640
 k-point    42 :   0.1538 0.1538 0.2500  plane waves:    4614
 k-point    43 :   0.2308 0.1538 0.2500  plane waves:    4625
 k-point    44 :   0.3077 0.1538 0.2500  plane waves:    4635
 k-point    45 :   0.3846 0.1538 0.2500  plane waves:    4632
 k-point    46 :   0.4615 0.1538 0.2500  plane waves:    4634
 k-point    47 :   0.2308 0.2308 0.2500  plane waves:    4626
 k-point    48 :   0.3077 0.2308 0.2500  plane waves:    4632
 k-point    49 :   0.3846 0.2308 0.2500  plane waves:    4626
 k-point    50 :   0.4615 0.2308 0.2500  plane waves:    4629
 k-point    51 :   0.3077 0.3077 0.2500  plane waves:    4640
 k-point    52 :   0.3846 0.3077 0.2500  plane waves:    4632
 k-point    53 :   0.4615 0.3077 0.2500  plane waves:    4635
 k-point    54 :   0.3846 0.3846 0.2500  plane waves:    4643
 k-point    55 :   0.4615 0.3846 0.2500  plane waves:    4635
 k-point    56 :   0.4615 0.4615 0.2500  plane waves:    4644
 k-point    57 :   0.0000 0.0000 0.5000  plane waves:    4628
 k-point    58 :   0.0769 0.0000 0.5000  plane waves:    4604
 k-point    59 :   0.1538 0.0000 0.5000  plane waves:    4620
 k-point    60 :   0.2308 0.0000 0.5000  plane waves:    4636
 k-point    61 :   0.3077 0.0000 0.5000  plane waves:    4634
 k-point    62 :   0.3846 0.0000 0.5000  plane waves:    4648
 k-point    63 :   0.4615 0.0000 0.5000  plane waves:    4640
 k-point    64 :   0.0769 0.0769 0.5000  plane waves:    4610
 k-point    65 :   0.1538 0.0769 0.5000  plane waves:    4622
 k-point    66 :   0.2308 0.0769 0.5000  plane waves:    4620
 k-point    67 :   0.3077 0.0769 0.5000  plane waves:    4634
 k-point    68 :   0.3846 0.0769 0.5000  plane waves:    4636
 k-point    69 :   0.4615 0.0769 0.5000  plane waves:    4638
 k-point    70 :   0.1538 0.1538 0.5000  plane waves:    4602
 k-point    71 :   0.2308 0.1538 0.5000  plane waves:    4608
 k-point    72 :   0.3077 0.1538 0.5000  plane waves:    4618
 k-point    73 :   0.3846 0.1538 0.5000  plane waves:    4622
 k-point    74 :   0.4615 0.1538 0.5000  plane waves:    4632
 k-point    75 :   0.2308 0.2308 0.5000  plane waves:    4624
 k-point    76 :   0.3077 0.2308 0.5000  plane waves:    4634
 k-point    77 :   0.3846 0.2308 0.5000  plane waves:    4626
 k-point    78 :   0.4615 0.2308 0.5000  plane waves:    4634
 k-point    79 :   0.3077 0.3077 0.5000  plane waves:    4628
 k-point    80 :   0.3846 0.3077 0.5000  plane waves:    4626
 k-point    81 :   0.4615 0.3077 0.5000  plane waves:    4628
 k-point    82 :   0.3846 0.3846 0.5000  plane waves:    4642
 k-point    83 :   0.4615 0.3846 0.5000  plane waves:    4644
 k-point    84 :   0.4615 0.4615 0.5000  plane waves:    4664

 maximum and minimum number of plane-waves per node :      4664     4602

 maximum number of plane-waves:      4664
 maximum index in each direction: 
   IXMAX=    7   IYMAX=    7   IZMAX=   21
   IXMIN=   -7   IYMIN=   -7   IZMIN=  -22


 serial   3D FFT for wavefunctions
 parallel 3D FFT for charge:
    minimum data exchange during FFTs selected (reduces bandwidth)


 total amount of memory used by VASP MPI-rank0   311525. kBytes
=======================================================================

   base      :      30000. kBytes
   nonl-proj :     113922. kBytes
   fftplans  :       1055. kBytes
   grid      :       8252. kBytes
   one-center:        373. kBytes
   wavefun   :     157923. kBytes
 
     INWAV:  cpu time      0.0000: real time      0.0005
 Broyden mixing: mesh for mixing (old mesh)
   NGX = 15   NGY = 15   NGZ = 43
  (NGX  = 60   NGY  = 60   NGZ  =180)
  gives a total of   9675 points

 initial charge density was supplied:
 charge density of overlapping atoms calculated
 number of electron     156.0000000 magnetization      26.9790000
 charge density for first step will be calculated from the start-wavefunctions


--------------------------------------------------------------------------------------------------------


 Maximum index for augmentation-charges         1101 (set IRDMAX)


--------------------------------------------------------------------------------------------------------


 First call to EWALD:  gamma=   0.319
 Maximum number of real-space cells 4x 4x 2
 Maximum number of reciprocal cells 2x 2x 5

    FEWALD:  cpu time      0.0020: real time      0.0020


--------------------------------------- Ionic step        1  -------------------------------------------




--------------------------------------- Iteration      1(   1)  ---------------------------------------


    POTLOK:  cpu time      0.0365: real time      0.0374
    SETDIJ:  cpu time      0.0153: real time      0.0157
    TRIAL :  cpu time      6.7153: real time      6.8614
    CORREC:  cpu time      0.0027: real time      0.0027
    --------------------------------------------
      LOOP:  cpu time      6.8836: real time      7.0557

 eigenvalue-minimisations  : 43008
 total energy-change (2. order) : 0.1777301E+04  (-0.9201554E+04)
 number of electron     156.0000000 magnetization      26.9790000
 augmentation part      156.0000000 magnetization      26.9790000

 Free energy of the ion-electron system (eV)
  ---------------------------------------------------
  alpha Z        PSCENC =       989.47749747
  Ewald energy   TEWEN  =    -17512.95745481
  -Hartree energ DENC   =     -6292.37984120
  -exchange      EXHF   =         0.00000000
  -V(xc)+E(xc)   XCENC  =       654.10323673
  PAW double counting   =     20093.01595527   -20816.85252197
  entropy T*S    EENTRO =        -0.00160933
  eigenvalues    EBANDS =       358.79268939
  atomic energy  EATOM  =     24304.10294433
  ---------------------------------------------------
  free energy    TOTEN  =      1777.30089587 eV

  energy without entropy =     1777.30250520  energy(sigma->0) =     1777.30143231


--------------------------------------------------------------------------------------------------------




--------------------------------------- Iteration      1(   2)  ---------------------------------------


    TRIAL :  cpu time      6.7901: real time      6.8403
    CORREC:  cpu time      0.0027: real time      0.0027
    --------------------------------------------
      LOOP:  cpu time      6.8076: real time      6.8643

 eigenvalue-minimisations  : 43040
 total energy-change (2. order) :-0.1769993E+04  (-0.1677859E+04)
 number of electron     156.0000000 magnetization      26.9790000
 augmentation part      156.0000000 magnetization      26.9790000

 Free energy of the ion-electron system (eV)
  ---------------------------------------------------
  alpha Z        PSCENC =       989.47749747
  Ewald energy   TEWEN  =    -17512.95745481
  -Hartree energ DENC   =     -6292.37984120
  -exchange      EXHF   =         0.00000000
  -V(xc)+E(xc)   XCENC  =       654.10323673
  PAW double counting   =     20093.01595527   -20816.85252197
  entropy T*S    EENTRO =        -0.00231017
  eigenvalues    EBANDS =     -1411.19972420
  atomic energy  EATOM  =     24304.10294433
  ---------------------------------------------------
  free energy    TOTEN  =         7.30778144 eV

  energy without entropy =        7.31009161  energy(sigma->0) =        7.30855149


--------------------------------------------------------------------------------------------------------




--------------------------------------- Iteration      1(   3)  ---------------------------------------


    TRIAL :  cpu time      7.7581: real time      7.9732
    CORREC:  cpu time      0.0025: real time      0.0025
    --------------------------------------------
      LOOP:  cpu time      7.7767: real time      7.9974

 eigenvalue-minimisations  : 50496
 total energy-change (2. order) :-0.1091084E+03  (-0.1071735E+03)
 number of electron     156.0000000 magnetization      26.9790000
 augmentation part      156.0000000 magnetization      26.9790000

 Free energy of the ion-electron system (eV)
  ---------------------------------------------------
  alpha Z        PSCENC =       989.47749747
  Ewald energy   TEWEN  =    -17512.95745481
  -Hartree energ DENC   =     -6292.37984120
  -exchange      EXHF   =         0.00000000
  -V(xc)+E(xc)   XCENC  =       654.10323673
  PAW double counting   =     20093.01595527   -20816.85252197
  entropy T*S    EENTRO =         0.01333396
  eigenvalues    EBANDS =     -1520.32372673
  atomic energy  EATOM  =     24304.10294433
  ---------------------------------------------------
  free energy    TOTEN  =      -101.80057697 eV

  energy without entropy =     -101.81391093  energy(sigma->0) =     -101.80502162


--------------------------------------------------------------------------------------------------------




--------------------------------------- Iteration      1(   4)  ---------------------------------------


    TRIAL :  cpu time      7.0854: real time      7.2612
    CORREC:  cpu time      0.0025: real time      0.0025
    --------------------------------------------
      LOOP:  cpu time      7.1044: real time      7.2851

 eigenvalue-minimisations  : 46016
 total energy-change (2. order) :-0.1690614E+01  (-0.1690178E+01)
 number of electron     156.0000000 magnetization      26.9790000
 augmentation part      156.0000000 magnetization      26.9790000

 Free energy of the ion-electron system (eV)
  ---------------------------------------------------
  alpha Z        PSCENC =       989.47749747
  Ewald energy   TEWEN  =    -17512.95745481
  -Hartree energ DENC   =     -6292.37984120
  -exchange      EXHF   =         0.00000000
  -V(xc)+E(xc)   XCENC  =       654.10323673
  PAW double counting   =     20093.01595527   -20816.85252197
  entropy T*S    EENTRO =         0.01340706
  eigenvalues    EBANDS =     -1522.01441433
  atomic energy  EATOM  =     24304.10294433
  ---------------------------------------------------
  free energy    TOTEN  =      -103.49119146 eV

  energy without entropy =     -103.50459852  energy(sigma->0) =     -103.49566048


--------------------------------------------------------------------------------------------------------




--------------------------------------- Iteration      1(   5)  ---------------------------------------


    TRIAL :  cpu time      8.2161: real time      8.3636
    CORREC:  cpu time      0.0026: real time      0.0027
    CHARGE:  cpu time      0.2206: real time      0.2222
    --------------------------------------------
      LOOP:  cpu time      8.4536: real time      8.6098

 eigenvalue-minimisations  : 52736
 total energy-change (2. order) :-0.3584933E-01  (-0.3584825E-01)
 number of electron     155.9999720 magnetization      25.9061210
 augmentation part       79.5004260 magnetization      18.0562637

 Free energy of the ion-electron system (eV)
  ---------------------------------------------------
  alpha Z        PSCENC =       989.47749747
  Ewald energy   TEWEN  =    -17512.95745481
  -Hartree energ DENC   =     -6292.37984120
  -exchange      EXHF   =         0.00000000
  -V(xc)+E(xc)   XCENC  =       654.10323673
  PAW double counting   =     20093.01595527   -20816.85252197
  entropy T*S    EENTRO =         0.01340564
  eigenvalues    EBANDS =     -1522.05026224
  atomic energy  EATOM  =     24304.10294433
  ---------------------------------------------------
  free energy    TOTEN  =      -103.52704080 eV

  energy without entropy =     -103.54044644  energy(sigma->0) =     -103.53150934


--------------------------------------------------------------------------------------------------------




--------------------------------------- Iteration      1(   6)  ---------------------------------------


    POTLOK:  cpu time      0.0277: real time      0.0279
    SETDIJ:  cpu time      0.0083: real time      0.0084
    TRIAL :  cpu time      3.2232: real time      3.2543
    CORREC:  cpu time      1.2123: real time      1.2243
    CHARGE:  cpu time      0.2081: real time      0.2094
    --------------------------------------------
      LOOP:  cpu time      4.6999: real time      4.7449

 eigenvalue-minimisations  :     0
 total energy-change (2. order) : 0.5116586E+02  (-0.3285904E+02)
 number of electron     155.9999704 magnetization      26.0476828
 augmentation part       83.7608607 magnetization      18.9986397

 Free energy of the ion-electron system (eV)
  ---------------------------------------------------
  alpha Z        PSCENC =       989.47749747
  Ewald energy   TEWEN  =    -17512.95745481
  -Hartree energ DENC   =     -5120.98059505
  -exchange      EXHF   =         0.00000000
  -V(xc)+E(xc)   XCENC  =       607.87096298
  PAW double counting   =     20340.63098770   -21001.62860402
  entropy T*S    EENTRO =        -0.00684124
  eigenvalues    EBANDS =     -2658.89032977
  atomic energy  EATOM  =     24304.10294433
  ---------------------------------------------------
  free energy    TOTEN  =       -52.36118554 eV

  energy without entropy =      -52.35434431  energy(sigma->0) =      -52.35890513


--------------------------------------------------------------------------------------------------------




--------------------------------------- Iteration      1(   7)  ---------------------------------------


    POTLOK:  cpu time      0.0264: real time      0.0266
    SETDIJ:  cpu time      0.0078: real time      0.0079
    TRIAL :  cpu time      3.2126: real time      3.3396
    CORREC:  cpu time      1.2310: real time      1.2442
    CHARGE:  cpu time      0.2044: real time      0.2057
    --------------------------------------------
      LOOP:  cpu time      4.7046: real time      4.8465

 eigenvalue-minimisations  :     0
 total energy-change (2. order) :-0.3391954E+02  (-0.4438753E+01)
 number of electron     155.9999703 magnetization      26.4277653
 augmentation part       84.8048063 magnetization      19.5932379

 Free energy of the ion-electron system (eV)
  ---------------------------------------------------
  alpha Z        PSCENC =       989.47749747
  Ewald energy   TEWEN  =    -17512.95745481
  -Hartree energ DENC   =     -5752.46079033
  -exchange      EXHF   =         0.00000000
  -V(xc)+E(xc)   XCENC  =       633.49191370
  PAW double counting   =     21406.02679585   -22183.12046837
  entropy T*S    EENTRO =        -0.00866275
  eigenvalues    EBANDS =     -1970.83432086
  atomic energy  EATOM  =     24304.10294433
  ---------------------------------------------------
  free energy    TOTEN  =       -86.28072427 eV

  energy without entropy =      -86.27206152  energy(sigma->0) =      -86.27783669


--------------------------------------------------------------------------------------------------------




--------------------------------------- Iteration      1(   8)  ---------------------------------------


    POTLOK:  cpu time      0.0255: real time      0.0257
    SETDIJ:  cpu time      0.0089: real time      0.0090
    TRIAL :  cpu time      3.2345: real time      3.3344
    CORREC:  cpu time      1.2151: real time      1.2275
    CHARGE:  cpu time      0.2111: real time      0.2123
    --------------------------------------------
      LOOP:  cpu time      4.7116: real time      4.8309

 eigenvalue-minimisations  :     0
 total energy-change (2. order) :-0.4443867E+01  (-0.3371909E+00)
 number of electron     155.9999703 magnetization      26.4635756
 augmentation part       84.8633017 magnetization      19.6439763

 Free energy of the ion-electron system (eV)
  ---------------------------------------------------
  alpha Z        PSCENC =       989.47749747
  Ewald energy   TEWEN  =    -17512.95745481
  -Hartree energ DENC   =     -5905.80805831
  -exchange      EXHF   =         0.00000000
  -V(xc)+E(xc)   XCENC  =       640.15168461
  PAW double counting   =     21801.89213360   -22578.59333969
  entropy T*S    EENTRO =        -0.00802053
  eigenvalues    EBANDS =     -1828.98133605
  atomic energy  EATOM  =     24304.10294433
  ---------------------------------------------------
  free energy    TOTEN  =       -90.72459161 eV

  energy without entropy =      -90.71657108  energy(sigma->0) =      -90.72191810


--------------------------------------------------------------------------------------------------------




--------------------------------------- Iteration      1(   9)  ---------------------------------------


    POTLOK:  cpu time      0.0267: real time      0.0269
    SETDIJ:  cpu time      0.0081: real time      0.0081
    TRIAL :  cpu time      3.1794: real time      3.3320
    CORREC:  cpu time      1.2136: real time      1.2267
    CHARGE:  cpu time      0.2061: real time      0.2074
    --------------------------------------------
      LOOP:  cpu time      4.6509: real time      4.8239

 eigenvalue-minimisations  :     0
 total energy-change (2. order) :-0.3320027E+00  (-0.1219369E+01)
 number of electron     155.9999704 magnetization      26.6016774
 augmentation part       84.9135007 magnetization      19.8332399

 Free energy of the ion-electron system (eV)
  ---------------------------------------------------
  alpha Z        PSCENC =       989.47749747
  Ewald energy   TEWEN  =    -17512.95745481
  -Hartree energ DENC   =     -5913.08970102
  -exchange      EXHF   =         0.00000000
  -V(xc)+E(xc)   XCENC  =       640.50053168
  PAW double counting   =     21815.52841653   -22590.41458815
  entropy T*S    EENTRO =        -0.00461887
  eigenvalues    EBANDS =     -1824.19621977
  atomic energy  EATOM  =     24304.10294433
  ---------------------------------------------------
  free energy    TOTEN  =       -91.05659429 eV

  energy without entropy =      -91.05197543  energy(sigma->0) =      -91.05505467


--------------------------------------------------------------------------------------------------------




--------------------------------------- Iteration      1(  10)  ---------------------------------------


    POTLOK:  cpu time      0.0257: real time      0.0260
    SETDIJ:  cpu time      0.0085: real time      0.0086
    TRIAL :  cpu time      3.3128: real time      3.3456
    CORREC:  cpu time      1.2101: real time      1.2229
    CHARGE:  cpu time      0.2063: real time      0.2075
    --------------------------------------------
      LOOP:  cpu time      4.7814: real time      4.8330

 eigenvalue-minimisations  :     0
 total energy-change (2. order) :-0.1224803E+01  (-0.1932996E+00)
 number of electron     155.9999704 magnetization      26.5775823
 augmentation part       85.0125916 magnetization      19.8540467

 Free energy of the ion-electron system (eV)
  ---------------------------------------------------
  alpha Z        PSCENC =       989.47749747
  Ewald energy   TEWEN  =    -17512.95745481
  -Hartree energ DENC   =     -5909.23998758
  -exchange      EXHF   =         0.00000000
  -V(xc)+E(xc)   XCENC  =       640.55892670
  PAW double counting   =     21710.93223240   -22467.07684327
  entropy T*S    EENTRO =        -0.00538607
  eigenvalues    EBANDS =     -1848.07409330
  atomic energy  EATOM  =     24304.10294433
  ---------------------------------------------------
  free energy    TOTEN  =       -92.28139694 eV

  energy without entropy =      -92.27601087  energy(sigma->0) =      -92.27960158


--------------------------------------------------------------------------------------------------------




--------------------------------------- Iteration      1(  11)  ---------------------------------------


    POTLOK:  cpu time      0.0261: real time      0.0263
    SETDIJ:  cpu time      0.0078: real time      0.0078
    TRIAL :  cpu time      3.2157: real time      3.3525
    CORREC:  cpu time      1.2110: real time      1.2238
    CHARGE:  cpu time      0.2021: real time      0.2033
    --------------------------------------------
      LOOP:  cpu time      4.6814: real time      4.8361

 eigenvalue-minimisations  :     0
 total energy-change (2. order) :-0.1932484E+00  (-0.2012428E+00)
 number of electron     155.9999704 magnetization      26.5381170
 augmentation part       85.1368081 magnetization      19.8752322

 Free energy of the ion-electron system (eV)
  ---------------------------------------------------
  alpha Z        PSCENC =       989.47749747
  Ewald energy   TEWEN  =    -17512.95745481
  -Hartree energ DENC   =     -5927.61962887
  -exchange      EXHF   =         0.00000000
  -V(xc)+E(xc)   XCENC  =       641.22956296
  PAW double counting   =     21711.87818041   -22468.77583726
  entropy T*S    EENTRO =        -0.00585178
  eigenvalues    EBANDS =     -1829.80452349
  atomic energy  EATOM  =     24304.10294433
  ---------------------------------------------------
  free energy    TOTEN  =       -92.47464533 eV

  energy without entropy =      -92.46879355  energy(sigma->0) =      -92.47269474


--------------------------------------------------------------------------------------------------------




--------------------------------------- Iteration      1(  12)  ---------------------------------------


    POTLOK:  cpu time      0.0257: real time      0.0260
    SETDIJ:  cpu time      0.0083: real time      0.0084
    TRIAL :  cpu time      3.2531: real time      3.2848
    CORREC:  cpu time      1.2189: real time      1.2320
    CHARGE:  cpu time      0.2006: real time      0.2019
    --------------------------------------------
      LOOP:  cpu time      4.7231: real time      4.7752

 eigenvalue-minimisations  :     0
 total energy-change (2. order) :-0.1963210E+00  (-0.5591014E-01)
 number of electron     155.9999704 magnetization      26.5564286
 augmentation part       85.1253543 magnetization      19.9110008

 Free energy of the ion-electron system (eV)
  ---------------------------------------------------
  alpha Z        PSCENC =       989.47749747
  Ewald energy   TEWEN  =    -17512.95745481
  -Hartree energ DENC   =     -5951.17354371
  -exchange      EXHF   =         0.00000000
  -V(xc)+E(xc)   XCENC  =       642.08721915
  PAW double counting   =     21715.14903395   -22473.71740712
  entropy T*S    EENTRO =        -0.00833028
  eigenvalues    EBANDS =     -1805.63340383
  atomic energy  EATOM  =     24304.10294433
  ---------------------------------------------------
  free energy    TOTEN  =       -92.67096636 eV

  energy without entropy =      -92.66263608  energy(sigma->0) =      -92.66818960


--------------------------------------------------------------------------------------------------------




--------------------------------------- Iteration      1(  13)  ---------------------------------------


    POTLOK:  cpu time      0.0255: real time      0.0257
    SETDIJ:  cpu time      0.0087: real time      0.0088
    TRIAL :  cpu time      3.2684: real time      3.4071
    CORREC:  cpu time      1.2156: real time      1.2284
    CHARGE:  cpu time      0.1994: real time      0.2006
    --------------------------------------------
      LOOP:  cpu time      4.7342: real time      4.8932

 eigenvalue-minimisations  :     0
 total energy-change (2. order) :-0.5597430E-01  (-0.2592470E-01)
 number of electron     155.9999704 magnetization      26.5760477
 augmentation part       85.1113024 magnetization      19.9428153

 Free energy of the ion-electron system (eV)
  ---------------------------------------------------
  alpha Z        PSCENC =       989.47749747
  Ewald energy   TEWEN  =    -17512.95745481
  -Hartree energ DENC   =     -5947.66620862
  -exchange      EXHF   =         0.00000000
  -V(xc)+E(xc)   XCENC  =       642.01736376
  PAW double counting   =     21685.91064496   -22443.81970407
  entropy T*S    EENTRO =        -0.00977213
  eigenvalues    EBANDS =     -1809.78369339
  atomic energy  EATOM  =     24304.10294433
  ---------------------------------------------------
  free energy    TOTEN  =       -92.72694066 eV

  energy without entropy =      -92.71716853  energy(sigma->0) =      -92.72368328


--------------------------------------------------------------------------------------------------------




--------------------------------------- Iteration      1(  14)  ---------------------------------------


    POTLOK:  cpu time      0.0249: real time      0.0252
    SETDIJ:  cpu time      0.0089: real time      0.0090
    TRIAL :  cpu time      3.2744: real time      3.3064
    CORREC:  cpu time      1.1994: real time      1.2785
    CHARGE:  cpu time      0.2037: real time      0.2049
    --------------------------------------------
      LOOP:  cpu time      4.7288: real time      4.8472

 eigenvalue-minimisations  :     0
 total energy-change (2. order) :-0.2559300E-01  (-0.2096140E-01)
 number of electron     155.9999704 magnetization      26.5972195
 augmentation part       85.1017256 magnetization      19.9805788

 Free energy of the ion-electron system (eV)
  ---------------------------------------------------
  alpha Z        PSCENC =       989.47749747
  Ewald energy   TEWEN  =    -17512.95745481
  -Hartree energ DENC   =     -5943.60729597
  -exchange      EXHF   =         0.00000000
  -V(xc)+E(xc)   XCENC  =       641.92462667
  PAW double counting   =     21666.76206498   -22424.18904485
  entropy T*S    EENTRO =        -0.01109038
  eigenvalues    EBANDS =     -1814.25609934
  atomic energy  EATOM  =     24304.10294433
  ---------------------------------------------------
  free energy    TOTEN  =       -92.75253366 eV

  energy without entropy =      -92.74144328  energy(sigma->0) =      -92.74883686


--------------------------------------------------------------------------------------------------------




--------------------------------------- Iteration      1(  15)  ---------------------------------------


    POTLOK:  cpu time      0.0263: real time      0.0265
    SETDIJ:  cpu time      0.0079: real time      0.0079
    TRIAL :  cpu time      3.2174: real time      3.3761
    CORREC:  cpu time      1.2183: real time      1.2312
    CHARGE:  cpu time      0.2039: real time      0.2051
    --------------------------------------------
      LOOP:  cpu time      4.6897: real time      4.8690

 eigenvalue-minimisations  :     0
 total energy-change (2. order) :-0.2082611E-01  (-0.1272878E-01)
 number of electron     155.9999704 magnetization      26.6203030
 augmentation part       85.1290191 magnetization      20.0491836

 Free energy of the ion-electron system (eV)
  ---------------------------------------------------
  alpha Z        PSCENC =       989.47749747
  Ewald energy   TEWEN  =    -17512.95745481
  -Hartree energ DENC   =     -5940.12321035
  -exchange      EXHF   =         0.00000000
  -V(xc)+E(xc)   XCENC  =       641.86299649
  PAW double counting   =     21651.56262699   -22408.71855147
  entropy T*S    EENTRO =        -0.01239366
  eigenvalues    EBANDS =     -1817.96911803
  atomic energy  EATOM  =     24304.10294433
  ---------------------------------------------------
  free energy    TOTEN  =       -92.77335977 eV

  energy without entropy =      -92.76096611  energy(sigma->0) =      -92.76922855


--------------------------------------------------------------------------------------------------------




--------------------------------------- Iteration      1(  16)  ---------------------------------------


    POTLOK:  cpu time      0.0253: real time      0.0255
    SETDIJ:  cpu time      0.0079: real time      0.0080
    TRIAL :  cpu time      3.2156: real time      3.2469
    CORREC:  cpu time      1.2104: real time      1.2234
    CHARGE:  cpu time      0.2038: real time      0.2051
    --------------------------------------------
      LOOP:  cpu time      4.6853: real time      4.7314

 eigenvalue-minimisations  :     0
 total energy-change (2. order) :-0.1273103E-01  (-0.5592561E-02)
 number of electron     155.9999704 magnetization      26.6327582
 augmentation part       85.1415390 magnetization      20.0884377

 Free energy of the ion-electron system (eV)
  ---------------------------------------------------
  alpha Z        PSCENC =       989.47749747
  Ewald energy   TEWEN  =    -17512.95745481
  -Hartree energ DENC   =     -5942.87856696
  -exchange      EXHF   =         0.00000000
  -V(xc)+E(xc)   XCENC  =       642.06773520
  PAW double counting   =     21659.33617247   -22417.59110552
  entropy T*S    EENTRO =        -0.01297069
  eigenvalues    EBANDS =     -1814.33091931
  atomic energy  EATOM  =     24304.10294433
  ---------------------------------------------------
  free energy    TOTEN  =       -92.78609080 eV

  energy without entropy =      -92.77312011  energy(sigma->0) =      -92.78176723


--------------------------------------------------------------------------------------------------------




--------------------------------------- Iteration      1(  17)  ---------------------------------------


    POTLOK:  cpu time      0.0255: real time      0.0257
    SETDIJ:  cpu time      0.0077: real time      0.0083
    TRIAL :  cpu time      3.2695: real time      3.4002
    CORREC:  cpu time      1.2242: real time      1.2367
    CHARGE:  cpu time      0.2031: real time      0.2046
    --------------------------------------------
      LOOP:  cpu time      4.7466: real time      4.8975

 eigenvalue-minimisations  :     0
 total energy-change (2. order) :-0.5567768E-02  (-0.5095602E-02)
 number of electron     155.9999705 magnetization      26.6468783
 augmentation part       85.1488497 magnetization      20.1321747

[...]
     61       8.0524      1.00436
     62       8.0530      1.00437
     63       8.0888      1.00821
     64       8.2205      1.03385
     65       8.2328      1.03511
     66       8.2416      1.03545
     67       8.4878      0.49922
     68       8.4900      0.48953
     69       8.4978      0.45710
     70       8.6827     -0.02254
     71       8.6830     -0.02258
     72       8.7108     -0.03346
     73       8.7116     -0.03347
     74       8.9262     -0.00403
     75       8.9273     -0.00403
     76       9.6005     -0.00000
     77       9.6018     -0.00000
     78       9.6944     -0.00000
     79       9.6949     -0.00000
     80       9.7158     -0.00000
     81       9.7161     -0.00000
     82       9.9175     -0.00000
     83       9.9178     -0.00000
     84      10.0843     -0.00000
     85      10.1203     -0.00000
     86      10.2180     -0.00000
     87      10.2283     -0.00000
     88      10.2802     -0.00000
     89      10.3641     -0.00000
     90      10.4034     -0.00000
     91      10.4109     -0.00000
     92      10.7304     -0.00000
     93      10.7316     -0.00000
     94      11.0740     -0.00000
     95      11.0753     -0.00000
     96      11.1553     -0.00000
     97      11.1558     -0.00000
     98      11.5420     -0.00000
     99      11.5431     -0.00000
    100      13.5879      0.00000
    101      15.2500      0.00000
    102      15.3138      0.00000
    103      15.3594      0.00000
    104      16.2736      0.00000
    105      16.2741      0.00000
    106      16.9095      0.00000
    107      16.9095      0.00000
    108      17.4506      0.00000
    109      17.4508      0.00000
    110      17.9269      0.00000
    111      17.9270      0.00000
    112      22.1800      0.00000
    113      22.1804      0.00000
    114      22.7186      0.00000
    115      22.7188      0.00000
    116      22.9813      0.00000
    117      22.9815      0.00000
    118      23.7713      0.00000
    119      23.7714      0.00000
    120      25.4761      0.00000
    121      25.4798      0.00000
    122      25.5384      0.00000
    123      25.8161      0.00000
    124      26.4111      0.00000
    125      26.4123      0.00000
    126      26.8572      0.00000
    127      26.8574      0.00000
    128      27.3593      0.00000


--------------------------------------------------------------------------------------------------------


 soft charge-density along one line, spin component           1
         0         1         2         3         4         5         6         7         8         9
 total charge-density along one line
 
 soft charge-density along one line, spin component           2
         0         1         2         3         4         5         6         7         8         9
 total charge-density along one line
 
 pseudopotential strength for first ion, spin component:           1
-46.201   0.000   0.000   8.119  -0.000  -0.000  -0.000  -0.000
  0.000 -46.201  -0.000  -0.000   8.119   0.000  -0.000   0.000
  0.000  -0.000 -46.081  -0.000   0.000   8.069   0.000  -0.000
  8.119  -0.000  -0.000   5.517  -0.000  -0.000   0.000   0.000
 -0.000   8.119   0.000  -0.000   5.517   0.000   0.000  -0.000
 -0.000   0.000   8.069  -0.000   0.000   5.527  -0.000   0.000
 -0.000  -0.000   0.000   0.000   0.000  -0.000  -3.049  -0.000
 -0.000   0.000  -0.000   0.000  -0.000   0.000  -0.000  -3.125
 -0.000  -0.000  -0.000   0.000   0.000  -0.000  -0.000   0.000
 -0.000  -0.000  -0.000   0.000   0.000   0.000   0.000  -0.000
 -0.000   0.000  -0.000   0.000  -0.000   0.000   0.000  -0.000
 -0.000  -0.000   0.000   0.000   0.000  -0.000  -3.547  -0.000
 -0.000   0.000  -0.000   0.000  -0.000   0.000  -0.000  -3.623
 -0.000  -0.000   0.000   0.000   0.000  -0.000  -0.000   0.000
 -0.000  -0.000  -0.000   0.000   0.000   0.000   0.000  -0.000
 -0.000   0.000   0.000   0.000  -0.000   0.000   0.000  -0.000
 -0.000   0.000   0.000  -0.000   0.000   0.000  -0.000  -0.000
 -0.000   0.000  -0.000  -0.000   0.000   0.000  -0.000  -0.000
 pseudopotential strength for first ion, spin component:           2
-43.703   0.000   0.000   7.070  -0.000  -0.000  -0.000  -0.000
  0.000 -43.704  -0.000  -0.000   7.071   0.000  -0.000   0.000
  0.000  -0.000 -43.664  -0.000   0.000   7.053   0.000  -0.000
  7.070  -0.000  -0.000   5.817  -0.000  -0.000   0.000   0.000
 -0.000   7.071   0.000  -0.000   5.817   0.000   0.000  -0.000
 -0.000   0.000   7.053  -0.000   0.000   5.822  -0.000   0.000
 -0.000  -0.000   0.000   0.000   0.000  -0.000  -1.066  -0.000
 -0.000   0.000  -0.000   0.000  -0.000   0.000  -0.000  -1.090
 -0.000  -0.000   0.000   0.000   0.000  -0.000  -0.000   0.000
 -0.000  -0.000  -0.000   0.000   0.000   0.000   0.000   0.000
 -0.000   0.000  -0.000   0.000   0.000   0.000  -0.000  -0.000
 -0.000  -0.000   0.000   0.000   0.000  -0.000  -1.597  -0.000
 -0.000   0.000  -0.000   0.000  -0.000   0.000  -0.000  -1.620
 -0.000  -0.000   0.000   0.000   0.000  -0.000  -0.000   0.000
 -0.000   0.000  -0.000   0.000   0.000   0.000   0.000   0.000
 -0.000   0.000  -0.000   0.000   0.000   0.000  -0.000  -0.000
 -0.000   0.000   0.000  -0.000   0.000   0.000  -0.000  -0.000
 -0.000   0.000   0.000  -0.000   0.000   0.000  -0.000  -0.000
 total augmentation occupancy for first ion, spin component:           1
  1.992   0.000   0.000  -0.028   0.000  -0.000   0.000  -0.000   0.000   0.000   0.000   0.000   0.000  -0.000   0.000   0.000
  0.000   1.992   0.000  -0.000  -0.028   0.000   0.000   0.000  -0.000   0.000   0.000   0.000  -0.000   0.000   0.000  -0.000
  0.000   0.000   1.992  -0.000   0.000  -0.028   0.000   0.000   0.000  -0.000  -0.000   0.000   0.000   0.000   0.000   0.000
 -0.028  -0.000  -0.000   0.155   0.000   0.000   0.000  -0.000   0.000   0.000   0.000   0.000   0.000   0.000   0.000   0.000
  0.000  -0.028   0.000   0.000   0.155   0.000   0.000   0.000  -0.000  -0.000   0.000   0.000   0.000   0.000  -0.000  -0.000
 -0.000   0.000  -0.028   0.000   0.000   0.138   0.000   0.000   0.000  -0.000  -0.000   0.000   0.000  -0.000   0.000   0.000
  0.000   0.000   0.000   0.000   0.000   0.000   2.982   0.000   0.000  -0.000   0.000  -1.520   0.000   0.000  -0.000  -0.000
 -0.000   0.000   0.000  -0.000   0.000   0.000   0.000   3.210   0.000  -0.000   0.000   0.000  -1.939   0.000   0.000   0.000
  0.000  -0.000   0.000   0.000  -0.000   0.000   0.000   0.000   3.351  -0.000   0.177  -0.000  -0.000  -1.812   0.000  -0.105
  0.000   0.000  -0.000   0.000  -0.000  -0.000  -0.000  -0.000  -0.000   2.983  -0.000  -0.000   0.000   0.000  -1.521   0.000
  0.000   0.000  -0.000   0.000   0.000  -0.000   0.000   0.000   0.177  -0.000   3.150  -0.000   0.000  -0.105  -0.000  -1.693
  0.000   0.000   0.000   0.000   0.000   0.000  -1.520   0.000  -0.000  -0.000  -0.000   1.463   0.000  -0.000   0.000   0.000
  0.000  -0.000   0.000   0.000   0.000   0.000   0.000  -1.939  -0.000   0.000   0.000   0.000   1.989   0.000  -0.000  -0.000
 -0.000   0.000   0.000   0.000   0.000  -0.000   0.000   0.000  -1.812   0.000  -0.105  -0.000   0.000   1.525  -0.000   0.026
  0.000   0.000   0.000   0.000  -0.000   0.000  -0.000   0.000   0.000  -1.521  -0.000   0.000  -0.000  -0.000   1.463   0.000
  0.000  -0.000   0.000   0.000  -0.000   0.000  -0.000   0.000  -0.105   0.000  -1.693   0.000  -0.000   0.026   0.000   1.497
  0.000   0.000   0.000   0.000   0.000   0.000  -0.000  -0.000  -0.092  -0.000   0.161   0.000  -0.000   0.062  -0.000  -0.108
 -0.000  -0.000   0.000   0.000  -0.000   0.000   0.000   0.000   0.006  -0.000  -0.010   0.000   0.000  -0.003  -0.000   0.006
 total augmentation occupancy for first ion, spin component:           2
 -0.002   0.000   0.000  -0.010   0.000   0.000   0.000   0.000  -0.000   0.000   0.000  -0.000  -0.000   0.000   0.000   0.000
  0.000  -0.002   0.000   0.000  -0.010  -0.000   0.000   0.000  -0.000   0.000  -0.000   0.000   0.000   0.000   0.000   0.000
  0.000   0.000  -0.002   0.000   0.000  -0.010   0.000   0.000   0.000   0.000   0.000   0.000   0.000   0.000  -0.000   0.000
 -0.010   0.000   0.000  -0.004  -0.000   0.000   0.000  -0.000  -0.000   0.000  -0.000   0.000   0.000   0.000   0.000   0.000
  0.000  -0.010   0.000  -0.000  -0.004   0.000   0.000   0.000  -0.000   0.000   0.000   0.000   0.000   0.000   0.000   0.000
  0.000  -0.000  -0.010   0.000   0.000  -0.012   0.000   0.000   0.000  -0.000   0.000   0.000   0.000   0.000   0.000  -0.000
  0.000   0.000   0.000   0.000   0.000   0.000   2.545   0.000  -0.000  -0.000   0.000  -1.123   0.000   0.000   0.000  -0.000
  0.000   0.000   0.000  -0.000   0.000   0.000   0.000   2.588   0.000   0.000   0.000   0.000  -1.076   0.000  -0.000  -0.000
 -0.000  -0.000   0.000  -0.000  -0.000   0.000  -0.000   0.000   2.885  -0.000   0.113  -0.000   0.000  -1.240   0.000  -0.098
  0.000   0.000   0.000   0.000   0.000  -0.000  -0.000   0.000  -0.000   2.546  -0.000   0.000   0.000   0.000  -1.124  -0.000
  0.000  -0.000   0.000  -0.000   0.000   0.000   0.000   0.000   0.113  -0.000   2.759  -0.000   0.000  -0.098   0.000  -1.129
 -0.000   0.000   0.000   0.000   0.000   0.000  -1.123   0.000  -0.000   0.000  -0.000   0.306   0.000   0.000   0.000  -0.000
 -0.000   0.000   0.000   0.000   0.000   0.000   0.000  -1.076   0.000   0.000   0.000   0.000   0.212   0.000  -0.000  -0.000
  0.000   0.000   0.000   0.000   0.000   0.000   0.000   0.000  -1.240   0.000  -0.098   0.000   0.000   0.414  -0.000   0.111
  0.000   0.000  -0.000   0.000   0.000   0.000   0.000  -0.000   0.000  -1.124   0.000   0.000  -0.000  -0.000   0.307  -0.000
  0.000   0.000   0.000   0.000   0.000  -0.000  -0.000  -0.000  -0.098  -0.000  -1.129  -0.000  -0.000   0.111  -0.000   0.287
  0.000   0.000   0.000   0.000   0.000   0.000  -0.000   0.000  -0.037  -0.000   0.065  -0.000  -0.000   0.036   0.000  -0.064
  0.000  -0.000  -0.000   0.000   0.000   0.000   0.000  -0.000   0.003   0.000  -0.005   0.000   0.000  -0.001   0.000   0.001


------------------------ aborting loop because EDIFF is reached ----------------------------------------





 total charge

# of ion       s       p       d       tot
------------------------------------------
    1        0.323   6.275   5.966  12.563
    2        0.323   6.275   5.966  12.563
    3        0.323   6.275   5.966  12.563
    4        0.323   6.275   5.966  12.563
    5        0.323   6.275   5.966  12.563
    6        0.323   6.275   5.966  12.563
    7        0.323   6.275   5.966  12.563
    8        0.323   6.275   5.966  12.563
    9        0.323   6.275   5.966  12.563
   10        0.714   0.595   8.000   9.308
   11        0.714   0.595   8.000   9.308
   12        0.714   0.595   8.000   9.308
--------------------------------------------------
tot          5.045  58.256  77.691 140.992



 magnetization (x)

# of ion       s       p       d       tot
------------------------------------------
    1        0.001  -0.016   2.913   2.898
    2        0.001  -0.016   2.913   2.898
    3        0.001  -0.016   2.913   2.898
    4        0.001  -0.016   2.914   2.898
    5        0.001  -0.016   2.913   2.898
    6        0.001  -0.016   2.913   2.898
    7        0.001  -0.016   2.913   2.898
    8        0.001  -0.016   2.913   2.898
    9        0.001  -0.016   2.913   2.898
   10       -0.042  -0.095   0.436   0.299
   11       -0.042  -0.095   0.436   0.299
   12       -0.042  -0.095   0.436   0.299
--------------------------------------------------
tot         -0.118  -0.430  27.527  26.979
 
    FORLOC:  cpu time      0.0022: real time      0.0023
    FORNL :  cpu time      0.8039: real time      0.8085
    STRESS:  cpu time      4.8703: real time      5.0024
    FORCOR:  cpu time      0.0232: real time      0.0233
    OFIELD:  cpu time      0.0001: real time      0.0001

  FORCE on cell =-STRESS in cart. coord.  units (eV):
  Direction    XX          YY          ZZ          XY          YZ          ZX
  --------------------------------------------------------------------------------------
  Alpha Z   989.47750   989.47750   989.47750
  Ewald   -5837.65601 -5837.65601 -5837.66355    -0.00000     0.00000     0.00000
  Hartree  1980.32830  1980.32830  1980.29873    -0.00000    -0.00000    -0.00000
  E(xc)    -941.79526  -941.79526  -941.79477     0.00000     0.00000    -0.00000
  Local     905.83697   905.83697   905.88638     0.00000    -0.00000    -0.00000
  n-local  -230.26426  -246.01971  -238.11967    12.86848    -0.18857     0.12458
  augment  1441.59093  1441.59093  1441.56895    -0.00000     0.00000     0.00000
  Kinetic  1688.56636  1682.84646  1685.69998     1.79026     0.24994     1.18031
  Fock        0.00000     0.00000     0.00000     0.00000     0.00000     0.00000
  -------------------------------------------------------------------------------------
  Total     -14.65314   -14.65314   -14.64644     0.00000     0.00000     0.00000
  in kB    -136.49377  -136.49377  -136.43140     0.00000     0.00000     0.00000
  external pressure =     -136.47 kB  Pullay stress =        0.00 kB


 VOLUME and BASIS-vectors are now :
 -----------------------------------------------------------------------------
  energy-cutoff  :      520.00
  volume of cell :      172.00
      direct lattice vectors                 reciprocal lattice vectors
     3.855980337  0.000000000  0.000000000     0.259337422  0.000000000  0.000000000
     0.000000000  3.855980337  0.000000000     0.000000000  0.259337422  0.000000000
     0.000000000  0.000000000 11.568014538     0.000000000  0.000000000  0.086445258

  length of vectors
     3.855980337  3.855980337 11.568014538     0.259337422  0.259337422  0.086445258


 FORCES acting on ions:
    Electron-Ion                     Ewald-Force                    Non-Local-Force
 -----------------------------------------------------------------------------------------------
   0.947E-14 0.104E-11 0.491E+00   -.241E-13 0.235E-13 -.491E+00   -.143E-20 0.621E-21 0.297E-02
   0.957E-14 0.695E-12 0.290E-12   -.392E-13 -.642E-14 0.568E-13   0.326E-23 -.286E-23 -.156E-24
   0.981E-14 0.989E-12 -.491E+00   -.265E-13 0.760E-14 0.491E+00   0.138E-20 -.237E-21 -.297E-02
   0.677E-12 0.756E-11 -.501E-11   0.150E-13 -.820E-14 0.341E-12   -.171E-23 -.147E-23 0.176E-22
   0.684E-12 0.619E-11 0.429E+00   0.261E-13 -.224E-14 -.425E+00   0.209E-21 0.111E-20 0.108E-02
   0.677E-12 0.556E-11 -.429E+00   -.345E-13 -.969E-14 0.425E+00   -.475E-21 -.874E-21 -.108E-02
   0.688E-12 -.111E-13 0.491E+00   0.592E-13 -.768E-14 -.491E+00   -.424E-21 0.284E-21 0.297E-02
   0.685E-12 -.957E-14 0.999E-11   0.437E-13 0.142E-13 0.568E-13   0.263E-23 0.335E-23 -.670E-24
   0.685E-12 -.754E-14 -.491E+00   0.460E-13 -.783E-14 0.491E+00   -.346E-21 0.267E-21 -.297E-02
   -.123E-14 -.271E-14 0.422E-13   -.334E-13 -.367E-13 0.000E+00   -.492E-23 0.968E-23 -.658E-23
   -.139E-14 -.384E-14 0.266E+00   -.482E-13 -.154E-13 -.264E+00   0.209E-22 -.287E-21 0.980E-03
   -.101E-14 -.209E-14 -.266E+00   0.623E-13 0.777E-14 0.264E+00   -.385E-22 0.284E-21 -.980E-03
 -----------------------------------------------------------------------------------------------
   0.415E-11 0.221E-10 0.805E-11   0.464E-13 -.410E-13 -.149E-12   -.111E-20 0.117E-20 0.217E-18
 
 
 POSITION                                       TOTAL-FORCE (eV/Angst)
 -----------------------------------------------------------------------------------
      0.00000      1.92799      1.92824        -0.000000     -0.000000      0.002384
      0.00000      1.92799      5.78401        -0.000000      0.000000      0.000000
      0.00000      1.92799      9.63978        -0.000000     -0.000000     -0.002384
      1.92799      1.92799      0.00000         0.000000      0.000000      0.000000
      1.92799      1.92799      3.85623        -0.000000      0.000000      0.005075
      1.92799      1.92799      7.71178        -0.000000     -0.000000     -0.005075
      1.92799      0.00000      1.92824         0.000000      0.000000      0.002384
      1.92799      0.00000      5.78401         0.000000      0.000000      0.000000
      1.92799      0.00000      9.63978        -0.000000      0.000000     -0.002384
      0.00000      0.00000      0.00000        -0.000000      0.000000      0.000000
      0.00000      0.00000      3.85614         0.000000      0.000000      0.003096
      0.00000      0.00000      7.71188        -0.000000      0.000000     -0.003096
 -----------------------------------------------------------------------------------
    total drift:                                0.000000      0.000000      0.000000


--------------------------------------------------------------------------------------------------------



  FREE ENERGIE OF THE ION-ELECTRON SYSTEM (eV)
  ---------------------------------------------------
  free  energy   TOTEN  =       -92.80949904 eV

  energy  without entropy=      -92.79331206  energy(sigma->0) =      -92.80410338
 


--------------------------------------------------------------------------------------------------------


    POTLOK:  cpu time      0.0394: real time      0.0397


--------------------------------------------------------------------------------------------------------




--------------------------------------------------------------------------------------------------------


  
 reached required accuracy - stopping structural energy minimisation
     LOOP+:  cpu time    191.0592: real time    195.5443
    4ORBIT:  cpu time      0.0000: real time      0.0000



 total charge

# of ion       s       p       d       tot
------------------------------------------
    1        0.323   6.275   5.966  12.563
    2        0.323   6.275   5.966  12.563
    3        0.323   6.275   5.966  12.563
    4        0.323   6.275   5.966  12.563
    5        0.323   6.275   5.966  12.563
    6        0.323   6.275   5.966  12.563
    7        0.323   6.275   5.966  12.563
    8        0.323   6.275   5.966  12.563
    9        0.323   6.275   5.966  12.563
   10        0.714   0.595   8.000   9.308
   11        0.714   0.595   8.000   9.308
   12        0.714   0.595   8.000   9.308
--------------------------------------------------
tot          5.045  58.256  77.691 140.992



 magnetization (x)

# of ion       s       p       d       tot
------------------------------------------
    1        0.001  -0.016   2.913   2.898
    2        0.001  -0.016   2.913   2.898
    3        0.001  -0.016   2.913   2.898
    4        0.001  -0.016   2.914   2.898
    5        0.001  -0.016   2.913   2.898
    6        0.001  -0.016   2.913   2.898
    7        0.001  -0.016   2.913   2.898
    8        0.001  -0.016   2.913   2.898
    9        0.001  -0.016   2.913   2.898
   10       -0.042  -0.095   0.436   0.299
   11       -0.042  -0.095   0.436   0.299
   12       -0.042  -0.095   0.436   0.299
--------------------------------------------------
tot         -0.118  -0.430  27.527  26.979
 

 total amount of memory used by VASP MPI-rank0   311525. kBytes
=======================================================================

   base      :      30000. kBytes
   nonl-proj :     113922. kBytes
   fftplans  :       1055. kBytes
   grid      :       8252. kBytes
   one-center:        373. kBytes
   wavefun   :     157923. kBytes
 
  
  
 General timing and accounting informations for this job:
 ========================================================
  
                  Total CPU time used (sec):      211.100
                            User time (sec):      204.325
                          System time (sec):        6.775
                         Elapsed time (sec):      223.127
  
                   Maximum memory used (kb):     1212336.
                   Average memory used (kb):          N/A
  
                          Minor page faults:       185073
                          Major page faults:          162
                 Voluntary context switches:         8359
