       N       E                     dE             d eps       ncg     rms          rms(c)
DAV:   1     0.176420910228E+04    0.17642E+04   -0.84451E+04 43104   0.181E+03
DAV:   2     0.541865536473E+01   -0.17588E+04   -0.16694E+04 43008   0.482E+02
DAV:   3    -0.103566201006E+03   -0.10898E+03   -0.10764E+03 50784   0.129E+02
DAV:   4    -0.105122715140E+03   -0.15565E+01   -0.15562E+01 45536   0.154E+01
DAV:   5    -0.105152011995E+03   -0.29297E-01   -0.29296E-01 53088   0.206E+00    0.398E+01
DAV:   6    -0.111324267631E+03   -0.61723E+01   -0.15954E+02 51648   0.652E+01    0.641E+01
DAV:   7    -0.114276255819E+03   -0.29520E+01   -0.45751E+02 53088   0.605E+01    0.644E+01
DAV:   8    -0.988361256477E+02    0.15440E+02   -0.12995E+02 51680   0.460E+01    0.376E+01
DAV:   9    -0.104022399644E+03   -0.51863E+01   -0.21083E+02 51104   0.351E+01    0.498E+01
DAV:  10    -0.968413835431E+02    0.71810E+01   -0.97368E+01 52000   0.261E+01    0.350E+01
DAV:  11    -0.918678582071E+02    0.49735E+01   -0.32249E+01 52096   0.178E+01    0.124E+01
DAV:  12    -0.940487804864E+02   -0.21809E+01   -0.21731E+01 52640   0.124E+01    0.238E+01
DAV:  13    -0.924358071428E+02    0.16130E+01   -0.17402E+01 52000   0.967E+00    0.875E+00
DAV:  14    -0.926636153588E+02   -0.22781E+00   -0.11888E+00 51936   0.425E+00    0.925E+00
DAV:  15    -0.927208585325E+02   -0.57243E-01   -0.76076E-01 51456   0.332E+00    0.837E+00
DAV:  16    -0.928822025049E+02   -0.16134E+00   -0.46948E-01 52384   0.267E+00    0.703E+00
DAV:  17    -0.932232600692E+02   -0.34106E+00   -0.13096E+00 52960   0.408E+00    0.468E+00
DAV:  18    -0.933153373748E+02   -0.92077E-01   -0.48865E-01 52096   0.285E+00    0.226E+00
DAV:  19    -0.933285202935E+02   -0.13183E-01   -0.15092E-01 51360   0.170E+00    0.132E+00
DAV:  20    -0.933358953995E+02   -0.73751E-02   -0.42429E-02 52192   0.911E-01    0.133E+00
DAV:  21    -0.933355797838E+02    0.31562E-03   -0.16624E-02 51680   0.711E-01    0.938E-01
DAV:  22    -0.933350533585E+02    0.52643E-03   -0.79153E-03 51808   0.523E-01    0.471E-01
DAV:  23    -0.933349401778E+02    0.11318E-03   -0.43455E-03 53280   0.299E-01    0.344E-01
DAV:  24    -0.933356861992E+02   -0.74602E-03   -0.24515E-03 51616   0.247E-01    0.171E-01
DAV:  25    -0.933357540502E+02   -0.67851E-04   -0.94697E-04 53056   0.153E-01    0.100E-01
DAV:  26    -0.933358255220E+02   -0.71472E-04   -0.39839E-04 53408   0.778E-02    0.601E-02
DAV:  27    -0.933358274386E+02   -0.19166E-05   -0.82532E-05 51776   0.514E-02    0.255E-02
DAV:  28    -0.933358379697E+02   -0.10531E-04   -0.24636E-05 51872   0.163E-02    0.217E-02
DAV:  29    -0.933358354793E+02    0.24904E-05   -0.64072E-06 42272   0.133E-02    0.116E-02
DAV:  30    -0.933358314501E+02    0.40293E-05   -0.51044E-06 29376   0.719E-03    0.630E-03
DAV:  31    -0.933358292624E+02    0.21877E-05   -0.70084E-07 28480   0.480E-03    0.348E-03
DAV:  32    -0.933358287768E+02    0.48558E-06   -0.28510E-07 25248   0.233E-03
   1 F= -.93335829E+02 E0= -.93335829E+02  d E =0.000000E+00  mag=     8.2281
