       N       E                     dE             d eps       ncg     rms          ort
DAV:   1     0.176880455789E+04    0.17688E+04   -0.91503E+04 10752   0.200E+03
DAV:   2     0.596915072652E+01   -0.17628E+04   -0.16731E+04 10752   0.483E+02
DAV:   3    -0.103499890347E+03   -0.10947E+03   -0.10811E+03 10752   0.129E+02
DAV:   4    -0.105064096080E+03   -0.15642E+01   -0.15639E+01 10752   0.155E+01
DAV:   5    -0.105093489167E+03   -0.29393E-01   -0.29392E-01 10752   0.206E+00
SDA:   6    -0.510023733263E+02    0.54091E+02   -0.29392E-01 10752   0.525E+03 0.000E+00
CGA:   7    -0.657811883486E+02   -0.14779E+02   -0.11420E+02 10752   0.180E+03 0.141E+03
CGA:   8    -0.821535229816E+02   -0.16372E+02   -0.15318E+02 10752   0.225E+03 0.121E+02
CGA:   9    -0.870398756993E+02   -0.48864E+01   -0.48223E+01 10752   0.388E+02 0.983E+01
CGA:  10    -0.885006416980E+02   -0.14608E+01   -0.16893E+01 10752   0.421E+02-0.429E+01
CGA:  11    -0.895443557638E+02   -0.10437E+01   -0.91892E+00 10752   0.204E+02 0.545E+01
CGA:  12    -0.903617529193E+02   -0.81740E+00   -0.74101E+00 10752   0.261E+02 0.230E+01
CGA:  13    -0.918113694849E+02   -0.14496E+01   -0.13023E+01 10752   0.207E+02 0.319E+01
CGA:  14    -0.922032276788E+02   -0.39186E+00   -0.30829E+00 10752   0.468E+01 0.637E+01
CGA:  15    -0.923364921754E+02   -0.13326E+00   -0.14601E+00 10752   0.498E+01-0.474E+00
CGA:  16    -0.925380087167E+02   -0.20152E+00   -0.20865E+00 10752   0.111E+02-0.101E+00
CGA:  17    -0.927776657700E+02   -0.23966E+00   -0.22795E+00 10752   0.637E+01 0.646E+00
CGA:  18    -0.929384623034E+02   -0.16080E+00   -0.16827E+00 10752   0.630E+01-0.285E+00
CGA:  19    -0.930991492748E+02   -0.16069E+00   -0.16233E+00 10752   0.451E+01-0.403E-01
CGA:  20    -0.931633627651E+02   -0.64213E-01   -0.63833E-01 10752   0.971E+00 0.246E-01
CGA:  21    -0.931801648556E+02   -0.16802E-01   -0.17179E-01 10752   0.660E+00-0.186E-01
CGA:  22    -0.932061286934E+02   -0.25964E-01   -0.26116E-01 10752   0.129E+01-0.244E-02
CGA:  23    -0.932376711386E+02   -0.31542E-01   -0.32987E-01 10752   0.799E+00-0.483E-01
CGA:  24    -0.932541055788E+02   -0.16434E-01   -0.16623E-01 10752   0.638E+00-0.843E-02
CGA:  25    -0.932734333489E+02   -0.19328E-01   -0.19373E-01 10752   0.594E+00-0.209E-02
CGA:  26    -0.932837953144E+02   -0.10362E-01   -0.10606E-01 10752   0.162E+00-0.135E-01
CGA:  27    -0.932870717406E+02   -0.32764E-02   -0.33189E-02 10752   0.137E+00-0.186E-02
CGA:  28    -0.932943340803E+02   -0.72623E-02   -0.72945E-02 10752   0.351E+00-0.139E-03
CGA:  29    -0.933040181860E+02   -0.96841E-02   -0.99387E-02 10752   0.188E+00-0.685E-02
CGA:  30    -0.933080013605E+02   -0.39832E-02   -0.40261E-02 10752   0.128E+00-0.168E-02
CGA:  31    -0.933126563218E+02   -0.46550E-02   -0.46793E-02 10752   0.141E+00-0.389E-03
CGA:  32    -0.933157969797E+02   -0.31407E-02   -0.32043E-02 10752   0.626E-01-0.226E-02
CGA:  33    -0.933178461689E+02   -0.20492E-02   -0.20661E-02 10752   0.922E-01-0.321E-03
CGA:  34    -0.933223018841E+02   -0.44557E-02   -0.44678E-02 10752   0.107E+00-0.841E-05
CGA:  35    -0.933244401158E+02   -0.21382E-02   -0.21453E-02 10752   0.340E-01-0.327E-03
CGA:  36    -0.933255902121E+02   -0.11501E-02   -0.11503E-02 10752   0.461E-01-0.408E-04
SDA:  37    -0.933275317832E+02   -0.19416E-02   -0.19446E-02 10752   0.401E-01-0.782E-04
CGA:  38    -0.933286189489E+02   -0.10872E-02   -0.10898E-02 10752   0.100E-01-0.669E-04
CGA:  39    -0.933293679130E+02   -0.74896E-03   -0.74916E-03 10752   0.626E-02-0.887E-05
CGA:  40    -0.933303036182E+02   -0.93571E-03   -0.93408E-03 10752   0.582E-02 0.213E-04
CGA:  41    -0.933305450245E+02   -0.24141E-03   -0.24163E-03 10752   0.471E-02 0.444E-05
CGA:  42    -0.933311156336E+02   -0.57061E-03   -0.56908E-03 10752   0.208E-02 0.293E-04
CGA:  43    -0.933313188543E+02   -0.20322E-03   -0.20272E-03 10752   0.111E-02 0.208E-04
CGA:  44    -0.933314025906E+02   -0.83736E-04   -0.83667E-04 10752   0.244E-02 0.193E-04
CGA:  45    -0.933317515783E+02   -0.34899E-03   -0.34352E-03 10752   0.892E-03 0.816E-04
CGA:  46    -0.933318091377E+02   -0.57559E-04   -0.57545E-04 10752   0.616E-03 0.158E-05
CGA:  47    -0.933318393946E+02   -0.30257E-04   -0.30020E-04 10752   0.583E-03-0.691E-05
CGA:  48    -0.933319389630E+02   -0.99568E-04   -0.10727E-03 10752   0.175E-03-0.671E-04
CGA:  49    -0.933319592511E+02   -0.20288E-04   -0.22539E-04 10752   0.542E-03-0.326E-04
CGA:  50    -0.933319766971E+02   -0.17446E-04   -0.16197E-04 10752   0.990E-04-0.269E-04
CGA:  51    -0.933319822553E+02   -0.55582E-05   -0.53549E-05 10752   0.886E-04-0.806E-05
CGA:  52    -0.933319854674E+02   -0.32121E-05   -0.30171E-05 10752   0.478E-04-0.392E-05
CGA:  53    -0.933319906202E+02   -0.51528E-05   -0.53824E-05 10752   0.837E-04-0.472E-05
CGA:  54    -0.933319926324E+02   -0.20123E-05   -0.19755E-05 10752   0.220E-04 0.297E-07
CGA:  55    -0.933319939012E+02   -0.12688E-05   -0.13242E-05 10752   0.386E-04 0.428E-05
CGA:  56    -0.933319957433E+02   -0.18421E-05   -0.20599E-05 10752   0.120E-04 0.794E-05
CGA:  57    -0.933319962921E+02   -0.54881E-06   -0.64775E-06 10752   0.875E-05 0.417E-05
   1 F= -.93331996E+02 E0= -.93335304E+02  d E =-.933320E+02  mag=     8.2492
       N       E                     dE             d eps       ncg     rms          ort
SDA:   1    -0.933227930955E+02    0.92026E-02    0.00000E+00 10752   0.267E-01 0.000E+00
CGA:   2    -0.933272122546E+02   -0.44192E-02   -0.44187E-02 10752   0.396E-01 0.334E-05
CGA:   3    -0.933291376153E+02   -0.19254E-02   -0.19253E-02 10752   0.338E-01 0.261E-05
CGA:   4    -0.933308513932E+02   -0.17138E-02   -0.17141E-02 10752   0.591E-02 0.358E-05
CGA:   5    -0.933317827615E+02   -0.93137E-03   -0.93084E-03 10752   0.436E-02 0.637E-05
CGA:   6    -0.933320058778E+02   -0.22312E-03   -0.22313E-03 10752   0.233E-02 0.858E-06
CGA:   7    -0.933320907329E+02   -0.84855E-04   -0.84808E-04 10752   0.590E-03-0.159E-05
CGA:   8    -0.933322194897E+02   -0.12876E-03   -0.12922E-03 10752   0.177E-03-0.314E-05
CGA:   9    -0.933322379242E+02   -0.18435E-04   -0.18414E-04 10752   0.248E-03 0.844E-06
CGA:  10    -0.933322493107E+02   -0.11386E-04   -0.11421E-04 10752   0.175E-03 0.955E-06
CGA:  11    -0.933322606089E+02   -0.11298E-04   -0.11316E-04 10752   0.417E-04 0.109E-05
CGA:  12    -0.933322658700E+02   -0.52611E-05   -0.52671E-05 10752   0.757E-04-0.130E-06
CGA:  13    -0.933322686039E+02   -0.27339E-05   -0.27356E-05 10752   0.194E-04 0.156E-07
CGA:  14    -0.933322702509E+02   -0.16470E-05   -0.16491E-05 10752   0.699E-05-0.292E-06
CGA:  15    -0.933322717314E+02   -0.14805E-05   -0.15742E-05 10752   0.684E-05-0.635E-06
CGA:  16    -0.933322718970E+02   -0.16561E-06   -0.16375E-06 10752   0.217E-05-0.375E-07
   2 F= -.93332272E+02 E0= -.93335592E+02  d E =-.275605E-03  mag=     8.2465
       N       E                     dE             d eps       ncg     rms          ort
SDA:   1    -0.933240999492E+02    0.81718E-02    0.00000E+00 10752   0.253E-01 0.000E+00
CGA:   2    -0.933269653320E+02   -0.28654E-02   -0.28650E-02 10752   0.492E-01 0.779E-05
CGA:   3    -0.933290998514E+02   -0.21345E-02   -0.21343E-02 10752   0.267E-01 0.126E-06
CGA:   4    -0.933310699813E+02   -0.19701E-02   -0.19703E-02 10752   0.555E-02 0.392E-05
CGA:   5    -0.933318174993E+02   -0.74752E-03   -0.74725E-03 10752   0.473E-02 0.509E-05
CGA:   6    -0.933320866256E+02   -0.26913E-03   -0.26916E-03 10752   0.328E-02 0.703E-06
CGA:   7    -0.933322042059E+02   -0.11758E-03   -0.11763E-03 10752   0.439E-03 0.129E-05
CGA:   8    -0.933323170262E+02   -0.11282E-03   -0.11301E-03 10752   0.227E-03-0.111E-05
CGA:   9    -0.933323257629E+02   -0.87367E-05   -0.87417E-05 10752   0.185E-03 0.765E-07
CGA:  10    -0.933323435594E+02   -0.17796E-04   -0.17789E-04 10752   0.109E-03 0.833E-06
CGA:  11    -0.933323535029E+02   -0.99435E-05   -0.99420E-05 10752   0.353E-04 0.578E-06
CGA:  12    -0.933323580898E+02   -0.45869E-05   -0.45897E-05 10752   0.567E-04-0.826E-07
CGA:  13    -0.933323601089E+02   -0.20191E-05   -0.20078E-05 10752   0.180E-04-0.190E-06
CGA:  14    -0.933323614624E+02   -0.13536E-05   -0.13528E-05 10752   0.677E-05-0.779E-07
CGA:  15    -0.933323620955E+02   -0.63304E-06   -0.63498E-06 10752   0.160E-04-0.106E-06
   3 F= -.93332362E+02 E0= -.93335682E+02  d E =-.365803E-03  mag=     8.2464
       N       E                     dE             d eps       ncg     rms          ort
SDA:   1    -0.932995153991E+02    0.32846E-01    0.00000E+00 10752   0.911E-01 0.000E+00
CGA:   2    -0.933155681072E+02   -0.16053E-01   -0.16054E-01 10752   0.106E+00-0.914E-05
CGA:   3    -0.933243605499E+02   -0.87924E-02   -0.87925E-02 10752   0.949E-01-0.406E-05
CGA:   4    -0.933272674992E+02   -0.29069E-02   -0.29093E-02 10752   0.230E-01-0.587E-04
CGA:   5    -0.933304479046E+02   -0.31804E-02   -0.31798E-02 10752   0.136E-01 0.117E-04
CGA:   6    -0.933314405741E+02   -0.99267E-03   -0.99270E-03 10752   0.342E-02 0.210E-05
CGA:   7    -0.933315815050E+02   -0.14093E-03   -0.14091E-03 10752   0.311E-02 0.683E-06
CGA:   8    -0.933319975065E+02   -0.41600E-03   -0.41609E-03 10752   0.897E-03-0.206E-05
CGA:   9    -0.933320409277E+02   -0.43421E-04   -0.43423E-04 10752   0.813E-03-0.198E-07
CGA:  10    -0.933320952277E+02   -0.54300E-04   -0.54323E-04 10752   0.528E-03 0.123E-05
CGA:  11    -0.933321474227E+02   -0.52195E-04   -0.52177E-04 10752   0.143E-03 0.144E-05
CGA:  12    -0.933321615268E+02   -0.14104E-04   -0.14103E-04 10752   0.297E-03 0.491E-07
CGA:  13    -0.933321740479E+02   -0.12521E-04   -0.12521E-04 10752   0.636E-04-0.183E-07
CGA:  14    -0.933321798995E+02   -0.58515E-05   -0.58522E-05 10752   0.260E-04-0.171E-06
CGA:  15    -0.933321827825E+02   -0.28831E-05   -0.28887E-05 10752   0.625E-04-0.217E-06
CGA:  16    -0.933321854369E+02   -0.26543E-05   -0.26370E-05 10752   0.549E-05-0.392E-06
CGA:  17    -0.933321861707E+02   -0.73382E-06   -0.73601E-06 10752   0.119E-04-0.268E-07
   4 F= -.93332186E+02 E0= -.93335507E+02  d E =-.189879E-03  mag=     8.2476
       N       E                     dE             d eps       ncg     rms          ort
SDA:   1    -0.933142843478E+02    0.17901E-01    0.00000E+00 10752   0.606E-01 0.000E+00
CGA:   2    -0.933183546579E+02   -0.40703E-02   -0.40699E-02 10752   0.109E+00-0.114E-04
CGA:   3    -0.933260248469E+02   -0.76702E-02   -0.76704E-02 10752   0.431E-01-0.680E-05
CGA:   4    -0.933294893939E+02   -0.34645E-02   -0.34645E-02 10752   0.190E-01-0.674E-05
CGA:   5    -0.933303115255E+02   -0.82213E-03   -0.82181E-03 10752   0.152E-01 0.403E-05
CGA:   6    -0.933317456886E+02   -0.14342E-02   -0.14342E-02 10752   0.397E-02-0.342E-05
CGA:   7    -0.933320296808E+02   -0.28399E-03   -0.28401E-03 10752   0.119E-02 0.781E-06
CGA:   8    -0.933321338126E+02   -0.10413E-03   -0.10413E-03 10752   0.266E-02 0.409E-07
CGA:   9    -0.933322860734E+02   -0.15226E-03   -0.15228E-03 10752   0.285E-03 0.137E-05
CGA:  10    -0.933323095486E+02   -0.23475E-04   -0.23476E-04 10752   0.535E-03-0.241E-06
CGA:  11    -0.933323390312E+02   -0.29483E-04   -0.29460E-04 10752   0.205E-03-0.937E-06
CGA:  12    -0.933323552760E+02   -0.16245E-04   -0.16245E-04 10752   0.699E-04-0.269E-06
CGA:  13    -0.933323650989E+02   -0.98229E-05   -0.97919E-05 10752   0.884E-04 0.509E-06
CGA:  14    -0.933323680561E+02   -0.29571E-05   -0.29728E-05 10752   0.276E-04 0.342E-06
CGA:  15    -0.933323703057E+02   -0.22496E-05   -0.22492E-05 10752   0.133E-04 0.189E-06
CGA:  16    -0.933323716429E+02   -0.13372E-05   -0.13317E-05 10752   0.274E-04 0.207E-06
CGA:  17    -0.933323727381E+02   -0.10952E-05   -0.11034E-05 10752   0.226E-05 0.223E-06
CGA:  18    -0.933323731552E+02   -0.41705E-06   -0.40513E-06 10752   0.556E-05 0.101E-06
   5 F= -.93332373E+02 E0= -.93335688E+02  d E =-.376863E-03  mag=     8.2464
       N       E                     dE             d eps       ncg     rms          ort
SDA:   1    -0.933322006402E+02    0.17210E-03    0.00000E+00 10752   0.352E-02 0.000E+00
CGA:   2    -0.933322807392E+02   -0.80099E-04   -0.80075E-04 10752   0.448E-03 0.271E-05
CGA:   3    -0.933323128856E+02   -0.32146E-04   -0.32146E-04 10752   0.262E-03-0.349E-07
CGA:   4    -0.933323403502E+02   -0.27465E-04   -0.27463E-04 10752   0.533E-03 0.918E-07
CGA:   5    -0.933323612466E+02   -0.20896E-04   -0.20913E-04 10752   0.669E-04 0.415E-06
CGA:   6    -0.933323678949E+02   -0.66484E-05   -0.66505E-05 10752   0.364E-04-0.110E-06
CGA:   7    -0.933323728782E+02   -0.49833E-05   -0.49993E-05 10752   0.558E-05-0.253E-06
CGA:   8    -0.933323733650E+02   -0.48680E-06   -0.48674E-06 10752   0.104E-04-0.737E-07
   6 F= -.93332373E+02 E0= -.93335690E+02  d E =-.377073E-03  mag=     8.2464
       N       E                     dE             d eps       ncg     rms          ort
SDA:   1    -0.933318605493E+02    0.51233E-03    0.00000E+00 10752   0.656E-02 0.000E+00
CGA:   2    -0.933320453316E+02   -0.18478E-03   -0.18475E-03 10752   0.190E-02 0.924E-07
CGA:   3    -0.933321438357E+02   -0.98504E-04   -0.98492E-04 10752   0.865E-03-0.574E-06
CGA:   4    -0.933323012382E+02   -0.15740E-03   -0.15740E-03 10752   0.720E-03-0.719E-07
CGA:   5    -0.933323225189E+02   -0.21281E-04   -0.21296E-04 10752   0.231E-03 0.445E-06
CGA:   6    -0.933323535187E+02   -0.31000E-04   -0.31025E-04 10752   0.133E-03-0.484E-06
CGA:   7    -0.933323643499E+02   -0.10831E-04   -0.10830E-04 10752   0.385E-04-0.112E-06
CGA:   8    -0.933323659021E+02   -0.15522E-05   -0.15492E-05 10752   0.306E-04-0.786E-07
CGA:   9    -0.933323690473E+02   -0.31452E-05   -0.31451E-05 10752   0.170E-04 0.297E-07
CGA:  10    -0.933323700734E+02   -0.10261E-05   -0.10270E-05 10752   0.120E-04 0.107E-07
CGA:  11    -0.933323705496E+02   -0.47619E-06   -0.47255E-06 10752   0.520E-05-0.875E-07
   7 F= -.93332371E+02 E0= -.93335687E+02  d E =-.374257E-03  mag=     8.2463
       N       E                     dE             d eps       ncg     rms          ort
SDA:   1    -0.933322503731E+02    0.11970E-03    0.00000E+00 10752   0.157E-02 0.000E+00
CGA:   2    -0.933322864437E+02   -0.36071E-04   -0.36075E-04 10752   0.262E-03 0.713E-06
CGA:   3    -0.933323361374E+02   -0.49694E-04   -0.49769E-04 10752   0.344E-03-0.696E-06
CGA:   4    -0.933323501381E+02   -0.14001E-04   -0.13989E-04 10752   0.200E-03-0.350E-06
CGA:   5    -0.933323607862E+02   -0.10648E-04   -0.10653E-04 10752   0.727E-04 0.142E-06
CGA:   6    -0.933323708610E+02   -0.10075E-04   -0.10043E-04 10752   0.128E-04 0.563E-06
CGA:   7    -0.933323720021E+02   -0.11411E-05   -0.11408E-05 10752   0.164E-04 0.117E-06
CGA:   8    -0.933323727176E+02   -0.71551E-06   -0.71502E-06 10752   0.793E-05-0.356E-07
   8 F= -.93332373E+02 E0= -.93335691E+02  d E =-.376426E-03  mag=     8.2463
       N       E                     dE             d eps       ncg     rms          ort
SDA:   1    -0.933322983969E+02    0.73605E-04    0.00000E+00 10752   0.299E-02 0.000E+00
CGA:   2    -0.933323555244E+02   -0.57128E-04   -0.57120E-04 10752   0.713E-04-0.403E-06
CGA:   3    -0.933323629325E+02   -0.74081E-05   -0.74244E-05 10752   0.669E-04-0.639E-06
CGA:   4    -0.933323681901E+02   -0.52575E-05   -0.52580E-05 10752   0.716E-04-0.368E-06
CGA:   5    -0.933323708152E+02   -0.26251E-05   -0.26113E-05 10752   0.144E-04-0.314E-06
CGA:   6    -0.933323735555E+02   -0.27403E-05   -0.27162E-05 10752   0.415E-05 0.206E-06
CGA:   7    -0.933323739047E+02   -0.34917E-06   -0.34978E-06 10752   0.386E-05 0.341E-07
   9 F= -.93332374E+02 E0= -.93335692E+02  d E =-.377613E-03  mag=     8.2464
       N       E                     dE             d eps       ncg     rms          ort
SDA:   1    -0.933322805160E+02    0.93040E-04    0.00000E+00 10752   0.412E-02 0.000E+00
CGA:   2    -0.933323618236E+02   -0.81308E-04   -0.81300E-04 10752   0.172E-03 0.140E-05
CGA:   3    -0.933323703148E+02   -0.84912E-05   -0.84969E-05 10752   0.135E-04 0.186E-06
CGA:   4    -0.933323716521E+02   -0.13373E-05   -0.13374E-05 10752   0.269E-04 0.897E-08
CGA:   5    -0.933323730003E+02   -0.13482E-05   -0.13541E-05 10752   0.113E-04 0.215E-06
CGA:   6    -0.933323738728E+02   -0.87247E-06   -0.87406E-06 10752   0.248E-05 0.173E-06
  10 F= -.93332374E+02 E0= -.93335692E+02  d E =-.377581E-03  mag=     8.2464
       N       E                     dE             d eps       ncg     rms          ort
SDA:   1    -0.933267513317E+02    0.56217E-02    0.00000E+00 10752   0.213E-01 0.000E+00
CGA:   2    -0.933278503371E+02   -0.10990E-02   -0.10995E-02 10752   0.262E-01-0.635E-05
CGA:   3    -0.933303498358E+02   -0.24995E-02   -0.24997E-02 10752   0.154E-01-0.618E-05
CGA:   4    -0.933314162211E+02   -0.10664E-02   -0.10665E-02 10752   0.590E-02 0.141E-05
CGA:   5    -0.933316745679E+02   -0.25835E-03   -0.25840E-03 10752   0.561E-02-0.132E-06
CGA:   6    -0.933322596922E+02   -0.58512E-03   -0.58500E-03 10752   0.541E-03 0.471E-05
CGA:   7    -0.933323213944E+02   -0.61702E-04   -0.61730E-04 10752   0.106E-02-0.899E-06
CGA:   8    -0.933323738810E+02   -0.52487E-04   -0.52473E-04 10752   0.633E-03-0.354E-06
CGA:   9    -0.933324117874E+02   -0.37906E-04   -0.37898E-04 10752   0.112E-03-0.389E-06
CGA:  10    -0.933324210509E+02   -0.92635E-05   -0.92636E-05 10752   0.243E-03-0.263E-06
CGA:  11    -0.933324359177E+02   -0.14867E-04   -0.14866E-04 10752   0.419E-04-0.187E-07
CGA:  12    -0.933324407907E+02   -0.48731E-05   -0.48607E-05 10752   0.273E-04 0.341E-06
CGA:  13    -0.933324429236E+02   -0.21328E-05   -0.21338E-05 10752   0.329E-04 0.214E-06
CGA:  14    -0.933324440813E+02   -0.11578E-05   -0.11586E-05 10752   0.475E-05 0.295E-07
CGA:  15    -0.933324448187E+02   -0.73741E-06   -0.76029E-06 10752   0.764E-05-0.260E-06
  11 F= -.93332445E+02 E0= -.93335756E+02  d E =-.709460E-04  mag=     8.2514
       N       E                     dE             d eps       ncg     rms          ort
SDA:   1    -0.933286288463E+02    0.38152E-02    0.00000E+00 10752   0.318E-01 0.000E+00
CGA:   2    -0.933294296735E+02   -0.80083E-03   -0.80087E-03 10752   0.984E-02-0.264E-05
CGA:   3    -0.933309571079E+02   -0.15274E-02   -0.15275E-02 10752   0.111E-01-0.839E-06
CGA:   4    -0.933318127068E+02   -0.85560E-03   -0.85561E-03 10752   0.343E-02 0.244E-06
CGA:   5    -0.933319647089E+02   -0.15200E-03   -0.15203E-03 10752   0.313E-02 0.167E-05
CGA:   6    -0.933323145283E+02   -0.34982E-03   -0.34972E-03 10752   0.431E-03 0.290E-05
CGA:   7    -0.933323439871E+02   -0.29459E-04   -0.29456E-04 10752   0.597E-03-0.247E-06
CGA:   8    -0.933323748909E+02   -0.30904E-04   -0.30888E-04 10752   0.318E-03-0.598E-06
CGA:   9    -0.933324091851E+02   -0.34294E-04   -0.34306E-04 10752   0.104E-03-0.409E-06
CGA:  10    -0.933324130660E+02   -0.38809E-05   -0.38841E-05 10752   0.694E-04 0.941E-07
CGA:  11    -0.933324224335E+02   -0.93675E-05   -0.93800E-05 10752   0.446E-04-0.233E-06
CGA:  12    -0.933324256523E+02   -0.32187E-05   -0.32197E-05 10752   0.160E-04 0.236E-06
CGA:  13    -0.933324266249E+02   -0.97266E-06   -0.97424E-06 10752   0.211E-04 0.555E-07
CGA:  14    -0.933324279901E+02   -0.13652E-05   -0.13682E-05 10752   0.275E-05 0.188E-06
CGA:  15    -0.933324282164E+02   -0.22629E-06   -0.22594E-06 10752   0.627E-05-0.503E-07
  12 F= -.93332428E+02 E0= -.93335733E+02  d E =-.543437E-04  mag=     8.2558
       N       E                     dE             d eps       ncg     rms          ort
SDA:   1    -0.933322432874E+02    0.18470E-03    0.00000E+00 10752   0.833E-03 0.000E+00
CGA:   2    -0.933322887619E+02   -0.45475E-04   -0.45472E-04 10752   0.845E-03-0.375E-06
CGA:   3    -0.933323366525E+02   -0.47891E-04   -0.47885E-04 10752   0.623E-03-0.313E-06
CGA:   4    -0.933323990023E+02   -0.62350E-04   -0.62370E-04 10752   0.184E-03-0.828E-06
CGA:   5    -0.933324069748E+02   -0.79726E-05   -0.79578E-05 10752   0.165E-03-0.447E-06
CGA:   6    -0.933324239006E+02   -0.16926E-04   -0.16937E-04 10752   0.489E-04-0.369E-06
CGA:   7    -0.933324277592E+02   -0.38586E-05   -0.38594E-05 10752   0.154E-04-0.564E-07
CGA:   8    -0.933324287875E+02   -0.10284E-05   -0.10301E-05 10752   0.251E-04 0.217E-06
CGA:   9    -0.933324307350E+02   -0.19475E-05   -0.19475E-05 10752   0.558E-05 0.302E-06
CGA:  10    -0.933324311059E+02   -0.37087E-06   -0.37216E-06 10752   0.505E-05 0.569E-08
  13 F= -.93332431E+02 E0= -.93335737E+02  d E =-.572331E-04  mag=     8.2555
