       N       E                     dE             d eps       ncg     rms          ort
DAV:   1     0.176713353407E+04    0.17671E+04   -0.91471E+04 10752   0.200E+03
DAV:   2     0.556596472406E+01   -0.17616E+04   -0.16722E+04 10752   0.483E+02
DAV:   3    -0.103563634555E+03   -0.10913E+03   -0.10776E+03 10752   0.129E+02
DAV:   4    -0.105121576230E+03   -0.15579E+01   -0.15576E+01 10752   0.154E+01
DAV:   5    -0.105150871843E+03   -0.29296E-01   -0.29295E-01 10752   0.206E+00
SDA:   6    -0.511837075127E+02    0.53967E+02   -0.29295E-01 10752   0.506E+03 0.000E+00
CGA:   7    -0.657155138795E+02   -0.14532E+02   -0.11238E+02 10752   0.183E+03 0.136E+03
CGA:   8    -0.826938224477E+02   -0.16978E+02   -0.15919E+02 10752   0.202E+03 0.118E+02
CGA:   9    -0.870065273204E+02   -0.43127E+01   -0.41530E+01 10752   0.376E+02 0.143E+02
CGA:  10    -0.885327762820E+02   -0.15262E+01   -0.17414E+01 10752   0.407E+02-0.386E+01
CGA:  11    -0.895103183455E+02   -0.97754E+00   -0.86016E+00 10752   0.200E+02 0.536E+01
CGA:  12    -0.903510565196E+02   -0.84074E+00   -0.76025E+00 10752   0.278E+02 0.230E+01
CGA:  13    -0.917748186211E+02   -0.14238E+01   -0.12373E+01 10752   0.199E+02 0.457E+01
CGA:  14    -0.921691722247E+02   -0.39435E+00   -0.31521E+00 10752   0.427E+01 0.587E+01
CGA:  15    -0.923065975788E+02   -0.13743E+00   -0.15016E+00 10752   0.563E+01-0.410E+00
CGA:  16    -0.925192967705E+02   -0.21270E+00   -0.22039E+00 10752   0.114E+02-0.120E+00
CGA:  17    -0.927482532370E+02   -0.22896E+00   -0.21214E+00 10752   0.653E+01 0.986E+00
CGA:  18    -0.929131797048E+02   -0.16493E+00   -0.17233E+00 10752   0.662E+01-0.283E+00
CGA:  19    -0.930752337667E+02   -0.16205E+00   -0.16276E+00 10752   0.497E+01-0.994E-02
CGA:  20    -0.931442595555E+02   -0.69026E-01   -0.68902E-01 10752   0.113E+01 0.291E-02
CGA:  21    -0.931626055762E+02   -0.18346E-01   -0.18842E-01 10752   0.736E+00-0.262E-01
CGA:  22    -0.931885805287E+02   -0.25975E-01   -0.26285E-01 10752   0.136E+01-0.578E-02
CGA:  23    -0.932208529482E+02   -0.32272E-01   -0.33645E-01 10752   0.881E+00-0.472E-01
CGA:  24    -0.932379775482E+02   -0.17125E-01   -0.17417E-01 10752   0.692E+00-0.130E-01
CGA:  25    -0.932591111075E+02   -0.21134E-01   -0.21135E-01 10752   0.784E+00-0.897E-03
CGA:  26    -0.932736023836E+02   -0.14491E-01   -0.14884E-01 10752   0.247E+00-0.200E-01
CGA:  27    -0.932779201185E+02   -0.43177E-02   -0.43843E-02 10752   0.161E+00-0.364E-02
CGA:  28    -0.932848516755E+02   -0.69316E-02   -0.69723E-02 10752   0.360E+00-0.599E-03
CGA:  29    -0.932953727517E+02   -0.10521E-01   -0.10871E-01 10752   0.243E+00-0.867E-02
CGA:  30    -0.933002645612E+02   -0.48918E-02   -0.50001E-02 10752   0.160E+00-0.445E-02
CGA:  31    -0.933061879058E+02   -0.59233E-02   -0.59527E-02 10752   0.220E+00-0.470E-03
CGA:  32    -0.933114612498E+02   -0.52733E-02   -0.53909E-02 10752   0.101E+00-0.370E-02
CGA:  33    -0.933140465451E+02   -0.25853E-02   -0.26190E-02 10752   0.103E+00-0.896E-03
CGA:  34    -0.933189411666E+02   -0.48946E-02   -0.49154E-02 10752   0.149E+00 0.102E-03
CGA:  35    -0.933221555142E+02   -0.32143E-02   -0.32417E-02 10752   0.477E-01-0.817E-03
CGA:  36    -0.933234823653E+02   -0.13269E-02   -0.13291E-02 10752   0.506E-01-0.614E-04
SDA:  37    -0.933259550398E+02   -0.24727E-02   -0.24748E-02 10752   0.657E-01-0.329E-04
CGA:  38    -0.933275695766E+02   -0.16145E-02   -0.16189E-02 10752   0.120E-01-0.158E-03
CGA:  39    -0.933288440351E+02   -0.12745E-02   -0.12780E-02 10752   0.103E-01-0.765E-04
CGA:  40    -0.933299880317E+02   -0.11440E-02   -0.11459E-02 10752   0.936E-02-0.387E-04
CGA:  41    -0.933303496648E+02   -0.36163E-03   -0.36206E-03 10752   0.621E-02 0.426E-05
CGA:  42    -0.933312033670E+02   -0.85370E-03   -0.84598E-03 10752   0.217E-02 0.110E-03
CGA:  43    -0.933314041124E+02   -0.20075E-03   -0.19995E-03 10752   0.218E-02 0.391E-04
CGA:  44    -0.933315262837E+02   -0.12217E-03   -0.12259E-03 10752   0.263E-02 0.298E-04
CGA:  45    -0.933320765208E+02   -0.55024E-03   -0.53638E-03 10752   0.890E-03 0.104E-03
CGA:  46    -0.933321635152E+02   -0.86994E-04   -0.87495E-04 10752   0.835E-03-0.244E-04
CGA:  47    -0.933322398537E+02   -0.76338E-04   -0.77362E-04 10752   0.194E-02-0.547E-04
CGA:  48    -0.933323345008E+02   -0.94647E-04   -0.92543E-04 10752   0.236E-03-0.777E-04
CGA:  49    -0.933323639922E+02   -0.29491E-04   -0.31376E-04 10752   0.789E-03-0.294E-04
CGA:  50    -0.933323907641E+02   -0.26772E-04   -0.25631E-04 10752   0.995E-04-0.257E-04
CGA:  51    -0.933323950924E+02   -0.43283E-05   -0.42727E-05 10752   0.123E-03-0.642E-06
CGA:  52    -0.933324039538E+02   -0.88614E-05   -0.88647E-05 10752   0.767E-04 0.193E-05
CGA:  53    -0.933324073835E+02   -0.34297E-05   -0.34840E-05 10752   0.733E-04 0.259E-05
CGA:  54    -0.933324109744E+02   -0.35909E-05   -0.36501E-05 10752   0.333E-04 0.315E-05
CGA:  55    -0.933324137736E+02   -0.27992E-05   -0.27839E-05 10752   0.758E-04 0.289E-05
CGA:  56    -0.933324176092E+02   -0.38356E-05   -0.39216E-05 10752   0.148E-04 0.417E-05
CGA:  57    -0.933324183287E+02   -0.71955E-06   -0.75279E-06 10752   0.122E-04 0.209E-05
   1 F= -.93332418E+02 E0= -.93335720E+02  d E =-.933324E+02  mag=     8.2607
       N       E                     dE             d eps       ncg     rms          ort
SDA:   1    -0.933312091668E+02    0.12084E-02    0.00000E+00 10752   0.102E-01 0.000E+00
CGA:   2    -0.933315326652E+02   -0.32350E-03   -0.32360E-03 10752   0.434E-02-0.629E-05
CGA:   3    -0.933318751704E+02   -0.34251E-03   -0.34252E-03 10752   0.295E-02-0.181E-05
CGA:   4    -0.933322578861E+02   -0.38272E-03   -0.38287E-03 10752   0.203E-02-0.263E-05
CGA:   5    -0.933323194979E+02   -0.61612E-04   -0.61603E-04 10752   0.780E-03-0.293E-06
CGA:   6    -0.933323939142E+02   -0.74416E-04   -0.74401E-04 10752   0.445E-03 0.537E-06
CGA:   7    -0.933324376957E+02   -0.43782E-04   -0.43762E-04 10752   0.104E-03 0.664E-06
CGA:   8    -0.933324422472E+02   -0.45515E-05   -0.45558E-05 10752   0.102E-03 0.154E-06
CGA:   9    -0.933324543848E+02   -0.12138E-04   -0.12147E-04 10752   0.270E-04-0.199E-06
CGA:  10    -0.933324559882E+02   -0.16034E-05   -0.16025E-05 10752   0.386E-04 0.345E-07
CGA:  11    -0.933324587199E+02   -0.27317E-05   -0.27314E-05 10752   0.170E-04 0.303E-06
CGA:  12    -0.933324599985E+02   -0.12786E-05   -0.12773E-05 10752   0.443E-05 0.546E-07
CGA:  13    -0.933324606251E+02   -0.62668E-06   -0.62837E-06 10752   0.112E-04-0.690E-08
   2 F= -.93332461E+02 E0= -.93335774E+02  d E =-.422964E-04  mag=     8.2586
       N       E                     dE             d eps       ncg     rms          ort
SDA:   1    -0.933279216870E+02    0.45383E-02    0.00000E+00 10752   0.296E-01 0.000E+00
CGA:   2    -0.933288241555E+02   -0.90247E-03   -0.90350E-03 10752   0.135E-01-0.298E-04
CGA:   3    -0.933307381164E+02   -0.19140E-02   -0.19144E-02 10752   0.131E-01-0.668E-05
CGA:   4    -0.933317320381E+02   -0.99392E-03   -0.99392E-03 10752   0.473E-02 0.159E-05
CGA:   5    -0.933319054027E+02   -0.17336E-03   -0.17338E-03 10752   0.328E-02 0.626E-06
CGA:   6    -0.933323010265E+02   -0.39562E-03   -0.39555E-03 10752   0.689E-03 0.163E-05
CGA:   7    -0.933323461935E+02   -0.45167E-04   -0.45161E-04 10752   0.660E-03-0.675E-06
CGA:   8    -0.933323769188E+02   -0.30725E-04   -0.30717E-04 10752   0.360E-03-0.317E-06
CGA:   9    -0.933324173792E+02   -0.40460E-04   -0.40510E-04 10752   0.132E-03-0.127E-05
CGA:  10    -0.933324239551E+02   -0.65759E-05   -0.65737E-05 10752   0.133E-03-0.677E-07
CGA:  11    -0.933324326142E+02   -0.86592E-05   -0.86625E-05 10752   0.712E-04 0.264E-06
CGA:  12    -0.933324393137E+02   -0.66994E-05   -0.66971E-05 10752   0.202E-04 0.832E-07
CGA:  13    -0.933324408605E+02   -0.15469E-05   -0.15479E-05 10752   0.404E-04 0.144E-06
CGA:  14    -0.933324435752E+02   -0.27146E-05   -0.27156E-05 10752   0.387E-05 0.869E-07
CGA:  15    -0.933324438863E+02   -0.31117E-06   -0.30996E-06 10752   0.766E-05 0.380E-07
   3 F= -.93332444E+02 E0= -.93335771E+02  d E =-.255576E-04  mag=     8.2622
       N       E                     dE             d eps       ncg     rms          ort
SDA:   1    -0.933314659387E+02    0.97764E-03    0.00000E+00 10752   0.105E-01 0.000E+00
CGA:   2    -0.933317428432E+02   -0.27690E-03   -0.27674E-03 10752   0.279E-02 0.703E-05
CGA:   3    -0.933320028848E+02   -0.26004E-03   -0.26004E-03 10752   0.264E-02-0.897E-07
CGA:   4    -0.933322753929E+02   -0.27251E-03   -0.27252E-03 10752   0.276E-02-0.690E-06
CGA:   5    -0.933323526501E+02   -0.77257E-04   -0.77250E-04 10752   0.393E-03 0.723E-06
CGA:   6    -0.933324382724E+02   -0.85622E-04   -0.85715E-04 10752   0.743E-04-0.626E-06
CGA:   7    -0.933324453285E+02   -0.70561E-05   -0.70506E-05 10752   0.174E-03 0.419E-06
CGA:   8    -0.933324545164E+02   -0.91878E-05   -0.91952E-05 10752   0.282E-04 0.305E-06
CGA:   9    -0.933324569720E+02   -0.24557E-05   -0.24551E-05 10752   0.336E-04 0.911E-07
CGA:  10    -0.933324585388E+02   -0.15668E-05   -0.15685E-05 10752   0.232E-04 0.481E-07
CGA:  11    -0.933324603047E+02   -0.17659E-05   -0.17663E-05 10752   0.443E-05-0.872E-07
CGA:  12    -0.933324610021E+02   -0.69735E-06   -0.69937E-06 10752   0.851E-05-0.363E-07
   4 F= -.93332461E+02 E0= -.93335785E+02  d E =-.426733E-04  mag=     8.2604
