 vasp.6.4.3 19Mar24 (build Mar 26 2024 14:05:37) complex                        
  
 executed on             LinuxIFC date 2024.12.16  23:38:46
 running  128 mpi-ranks, on    1 nodes
 distrk:  each k-point on   32 cores,    4 groups
 distr:  one band on NCORE=   1 cores,   32 groups


--------------------------------------------------------------------------------------------------------


 INCAR:
   ALGO = All
   EDIFF = 1e-06
   EDIFFG = -0.01
   ENCUT = 520
   GGA = Pe
   IBRION = 2
   ISIF = 4
   ISMEAR = 1
   ISPIN = 2
   KPAR = 4
   LCHARG = True
   LORBIT = 11
   LREAL = False
   LWAVE = False
   MAGMOM = 1*-2.405 1*2.553 1*2.505 1*-2.472 1*2.489 1*2.676 1*-2.405 1*2.553 1*2.505 1*-0.045 1*0.064 1*0.265
   NELM = 200
   NSW = 100
   PREC = Accurate
   SIGMA = 0.2

 POTCAR:    PAW_PBE Fe_pv 02Aug2007               
 POTCAR:    PAW_PBE Pt 04Feb2005                  
 -----------------------------------------------------------------------------
|                                                                             |
|           W    W    AA    RRRRR   N    N  II  N    N   GGGG   !!!           |
|           W    W   A  A   R    R  NN   N  II  NN   N  G    G  !!!           |
|           W    W  A    A  R    R  N N  N  II  N N  N  G       !!!           |
|           W WW W  AAAAAA  RRRRR   N  N N  II  N  N N  G  GGG   !            |
|           WW  WW  A    A  R   R   N   NN  II  N   NN  G    G                |
|           W    W  A    A  R    R  N    N  II  N    N   GGGG   !!!           |
|                                                                             |
|     For optimal performance we recommend to set                             |
|       NCORE = 2 up to number-of-cores-per-socket                            |
|     NCORE specifies how many cores store one orbital (NPAR=cpu/NCORE).      |
|     This setting can greatly improve the performance of VASP for DFT.       |
|     The default, NCORE=1 might be grossly inefficient on modern             |
|     multi-core architectures or massively parallel machines. Do your        |
|     own testing! More info at https://www.vasp.at/wiki/index.php/NCORE      |
|     Unfortunately you need to use the default for GW and RPA                |
|     calculations (for HF NCORE is supported but not extensively tested      |
|     yet).                                                                   |
|                                                                             |
 -----------------------------------------------------------------------------

 POTCAR:    PAW_PBE Fe_pv 02Aug2007               
   SHA256 =  5d22e414b1f82158bf2c7ecb8b97b28fd0923e48cadc1c3bf74d524558f5dd32 Fe_pv/POTCAR          
   COPYR  = (c) Copyright 02Aug2007 Georg Kresse                                                    
   COPYR  = This file is part of the software VASP. Any use, copying, and all other rights are regul
   COPYR  = If you do not have a valid VASP license, you may not use, copy or distribute this file. 
   VRHFIN =Fe:  3pd7s1                                                                              
   LEXCH  = PE                                                                                      
   EATOM  =  2457.4239 eV,  180.6156 Ry                                                             
                                                                                                    
   TITEL  = PAW_PBE Fe_pv 02Aug2007                                                                 
   LULTRA =        F    use ultrasoft PP ?                                                          
   IUNSCR =        1    unscreen: 0-lin 1-nonlin 2-no                                               
   RPACOR =    1.750    partial core radius                                                         
   POMASS =   55.847; ZVAL   =   14.000    mass and valenz                                          
   RCORE  =    2.200    outmost cutoff radius                                                       
   RWIGS  =    2.200; RWIGS  =    1.164    wigner-seitz radius (au A)                               
   ENMAX  =  293.238; ENMIN  =  219.928 eV                                                          
   ICORE  =        3    local potential                                                             
   LCOR   =        T    correct aug charges                                                         
   LPAW   =        T    paw PP                                                                      
   EAUG   =  578.342                                                                                
   DEXC   =    0.000                                                                                
   RMAX   =    2.249    core radius for proj-oper                                                   
   RAUG   =    1.300    factor for augmentation sphere                                              
   RDEP   =    2.296    radius for radial grids                                                     
   RDEPT  =    1.766    core radius for aug-charge                                                  
                                                                                                    
   Atomic configuration                                                                             
    8 entries                                                                                       
     n  l   j            E        occ.                                                              
     1  0  0.50     -6993.8440   2.0000                                                             
     2  0  0.50      -814.6047   2.0000                                                             
     2  1  1.50      -693.3689   6.0000                                                             
     3  0  0.50       -89.4732   2.0000                                                             
     3  1  1.50       -55.6373   6.0000                                                             
     3  2  2.50        -3.8151   7.0000                                                             
     4  0  0.50        -4.2551   1.0000                                                             
     4  3  2.50        -1.3606   0.0000                                                             
   Description                                                                                      
     l       E           TYP  RCUT    TYP  RCUT                                                     
     1    -55.6372668     23  2.000                                                                 
     1     -5.4423304     23  2.000                                                                 
     2     -3.8151096     23  2.200                                                                 
     2     -5.1756922     23  2.200                                                                 
     0     -4.2550951     23  2.200                                                                 
     0     27.2116520     23  2.200                                                                 
     3     -1.3605826     23  2.200                                                                 
  local pseudopotential read in
  partial core-charges read in
  partial kinetic energy density read in
  atomic valenz-charges read in
  non local Contribution for L=           1  read in
    real space projection operators read in
  non local Contribution for L=           1  read in
    real space projection operators read in
  non local Contribution for L=           2  read in
    real space projection operators read in
  non local Contribution for L=           2  read in
    real space projection operators read in
  non local Contribution for L=           0  read in
    real space projection operators read in
  non local Contribution for L=           0  read in
    real space projection operators read in
    PAW grid and wavefunctions read in
 
   number of l-projection  operators is LMAX  =           6
   number of lm-projection operators is LMMAX =          18
 
 POTCAR:    PAW_PBE Pt 04Feb2005                  
   SHA256 =  3ed90460adef76debcff1cfb73ee1349b515b1a3db03439735b44de3a8db7dc8 Pt/POTCAR             
   COPYR  = (c) Copyright 04Feb2005 Georg Kresse                                                    
   COPYR  = This file is part of the software VASP. Any use, copying, and all other rights are regul
   COPYR  = If you do not have a valid VASP license, you may not use, copy or distribute this file. 
   VRHFIN =Pt: s1d9                                                                                 
   LEXCH  = PE                                                                                      
   EATOM  =   729.1176 eV,   53.5886 Ry                                                             
                                                                                                    
   TITEL  = PAW_PBE Pt 04Feb2005                                                                    
   LULTRA =        F    use ultrasoft PP ?                                                          
   IUNSCR =        1    unscreen: 0-lin 1-nonlin 2-no                                               
   RPACOR =    2.330    partial core radius                                                         
   POMASS =  195.080; ZVAL   =   10.000    mass and valenz                                          
   RCORE  =    2.600    outmost cutoff radius                                                       
   RWIGS  =    2.750; RWIGS  =    1.455    wigner-seitz radius (au A)                               
   ENMAX  =  230.283; ENMIN  =  172.712 eV                                                          
   ICORE  =        3    local potential                                                             
   LCOR   =        T    correct aug charges                                                         
   LPAW   =        T    paw PP                                                                      
   EAUG   =  358.966                                                                                
   DEXC   =    0.000                                                                                
   RMAX   =    2.658    core radius for proj-oper                                                   
   RAUG   =    1.300    factor for augmentation sphere                                              
   RDEP   =    2.761    radius for radial grids                                                     
   RDEPT  =    2.203    core radius for aug-charge                                                  
                                                                                                    
   Atomic configuration                                                                             
   16 entries                                                                                       
     n  l   j            E        occ.                                                              
     1  0  0.50    -78401.1885   2.0000                                                             
     2  0  0.50    -13770.7750   2.0000                                                             
     2  1  1.50    -11931.0468   6.0000                                                             
     3  0  0.50     -3234.7234   2.0000                                                             
     3  1  1.50     -2699.2216   6.0000                                                             
     3  2  2.50     -2119.5714  10.0000                                                             
     4  0  0.50      -695.1528   2.0000                                                             
     4  1  1.50      -519.6034   6.0000                                                             
     4  2  2.50      -306.6786  10.0000                                                             
     4  3  3.50       -70.1041  14.0000                                                             
     5  0  0.50      -101.7747   2.0000                                                             
     5  1  1.50       -55.9873   6.0000                                                             
     5  2  2.50        -6.1423   9.0000                                                             
     6  0  0.50        -5.6573   1.0000                                                             
     6  1  1.50        -6.8029   0.0000                                                             
     5  3  2.50        -1.3606   0.0000                                                             
   Description                                                                                      
     l       E           TYP  RCUT    TYP  RCUT                                                     
     2     -6.1423404     23  2.500                                                                 
     2     -7.5029230     23  2.500                                                                 
     0     -5.6573207     23  2.500                                                                 
     0      0.7416693     23  2.500                                                                 
     1     -2.7211652     23  2.600                                                                 
     1     20.4087390     23  2.600                                                                 
     3     -1.3605826     23  2.500                                                                 
  local pseudopotential read in
  partial core-charges read in
  partial kinetic energy density read in
  atomic valenz-charges read in
  non local Contribution for L=           2  read in
    real space projection operators read in
  non local Contribution for L=           2  read in
    real space projection operators read in
  non local Contribution for L=           0  read in
    real space projection operators read in
  non local Contribution for L=           0  read in
    real space projection operators read in
  non local Contribution for L=           1  read in
    real space projection operators read in
  non local Contribution for L=           1  read in
    real space projection operators read in
    PAW grid and wavefunctions read in
 
   number of l-projection  operators is LMAX  =           6
   number of lm-projection operators is LMMAX =          18
 
  PAW_PBE Fe_pv 02Aug2007               :
 energy of atom  1       EATOM=-2457.4239
 kinetic energy error for atom=    0.0062 (will be added to EATOM!!)
  PAW_PBE Pt 04Feb2005                  :
 energy of atom  2       EATOM= -729.1176
 kinetic energy error for atom=    0.0032 (will be added to EATOM!!)
 
 
 POSCAR: Fe9 Pt3
  positions in direct lattice
  velocities in cartesian coordinates


 exchange-correlation table for PE
   RHO(1)=    0.500       N(1)  =     2000
   RHO(2)=  100.500       N(2)  =     4000
 


--------------------------------------------------------------------------------------------------------


 ion  position               nearest neighbor table
   1  0.000  0.500  0.167-   4 2.58   4 2.58  11 2.59  11 2.59   7 2.60   7 2.60   7 2.60   7 2.60
                            10 2.63  10 2.63   5 2.65   5 2.65
   2  0.000  0.500  0.499-   5 2.58   5 2.58   8 2.60   8 2.60   8 2.60   8 2.60   6 2.60   6 2.60
                            12 2.62  12 2.62  11 2.64  11 2.64
   3  0.000  0.500  0.834-  10 2.60  10 2.60   9 2.60   9 2.60   9 2.60   9 2.60  12 2.62  12 2.62
                             6 2.64   6 2.64   4 2.65   4 2.65
   4  0.500  0.500  0.005-   1 2.58   7 2.58   7 2.58   1 2.58  10 2.60  10 2.60  10 2.60  10 2.60
                             9 2.65   3 2.65   9 2.65   3 2.65
   5  0.500  0.500  0.337-   2 2.58   8 2.58   8 2.58   2 2.58  11 2.60  11 2.60  11 2.60  11 2.60
                             1 2.65   7 2.65   1 2.65   7 2.65
   6  0.500  0.500  0.664-  12 2.60  12 2.60  12 2.60  12 2.60   8 2.60   2 2.60   2 2.60   8 2.60
                             9 2.64   3 2.64   9 2.64   3 2.64
   7  0.500  0.000  0.167-   4 2.58   4 2.58  11 2.59  11 2.59   1 2.60   1 2.60   1 2.60   1 2.60
                            10 2.63  10 2.63   5 2.65   5 2.65
   8  0.500  0.000  0.499-   5 2.58   5 2.58   2 2.60   2 2.60   2 2.60   2 2.60   6 2.60   6 2.60
                            12 2.62  12 2.62  11 2.64  11 2.64
   9  0.500  0.000  0.834-  10 2.60  10 2.60   3 2.60   3 2.60   3 2.60   3 2.60  12 2.62  12 2.62
                             6 2.64   6 2.64   4 2.65   4 2.65
  10  0.000  0.000  0.999-   3 2.60   9 2.60   3 2.60   9 2.60   4 2.60   4 2.60   4 2.60   4 2.60
                             1 2.63   7 2.63   7 2.63   1 2.63
  11  0.000  0.000  0.330-   1 2.59   7 2.59   1 2.59   7 2.59   5 2.60   5 2.60   5 2.60   5 2.60
                             2 2.64   2 2.64   8 2.64   8 2.64
  12  0.000  0.000  0.667-   6 2.60   6 2.60   6 2.60   6 2.60   3 2.62   9 2.62   9 2.62   3 2.62
                             2 2.62   8 2.62   8 2.62   2 2.62
 
  LATTYP: Found a simple tetragonal cell.
 ALAT       =     3.6784531572
 C/A-ratio  =     3.0337602554
  
  Lattice vectors:
  
 A1 = (   3.6784531572,   0.0000000000,   0.0000000000)
 A2 = (   0.0000000000,   3.6784531572,   0.0000000000)
 A3 = (   0.0000000000,   0.0000000000,  11.1595449898)


Analysis of symmetry for initial positions (statically):
=====================================================================
 Subroutine PRICEL returns:
 Original cell was already a primitive cell.
 

 Routine SETGRP: Setting up the symmetry group for a 
 simple tetragonal supercell.


 Subroutine GETGRP returns: Found  8 space group operations
 (whereof  8 operations were pure point group operations)
 out of a pool of 16 trial point group operations.


The static configuration has the point symmetry C_4v.


Analysis of symmetry for dynamics (positions and initial velocities):
=====================================================================
 Subroutine PRICEL returns:
 Original cell was already a primitive cell.
 

 Routine SETGRP: Setting up the symmetry group for a 
 simple tetragonal supercell.


 Subroutine GETGRP returns: Found  8 space group operations
 (whereof  8 operations were pure point group operations)
 out of a pool of 16 trial point group operations.


The dynamic configuration has the point symmetry C_4v.


Analysis of structural, dynamic, and magnetic symmetry:
=====================================================================
 Subroutine PRICEL returns:
 Original cell was already a primitive cell.
 

 Routine SETGRP: Setting up the symmetry group for a 
 simple tetragonal supercell.


 Subroutine GETGRP returns: Found  8 space group operations
 (whereof  8 operations were pure point group operations)
 out of a pool of 16 trial point group operations.


The overall configuration has the point symmetry C_4v.


 Subroutine INISYM returns: Found  8 space group operations
 (whereof  8 operations are pure point group operations),
 and found     1 'primitive' translations


----------------------------------------------------------------------------------------

                                     Primitive cell                                     

  volume of cell :     151.0000

  direct lattice vectors                    reciprocal lattice vectors
     3.678453157  0.000000000  0.000000000     0.271853401  0.000000000  0.000000000
     0.000000000  3.678453157  0.000000000     0.000000000  0.271853401  0.000000000
     0.000000000  0.000000000 11.159544990     0.000000000  0.000000000  0.089609388

  length of vectors
     3.678453157  3.678453157 11.159544990     0.271853401  0.271853401  0.089609388

  position of ions in fractional coordinates (direct lattice)
     0.000000000  0.500000000  0.166685595
     0.000000000  0.500000000  0.499178780
     0.000000000  0.500000000  0.833837134
     0.500000000  0.500000000  0.004695596
     0.500000000  0.500000000  0.337024759
     0.500000000  0.500000000  0.664160600
     0.500000000  0.000000000  0.166685595
     0.500000000  0.000000000  0.499178780
     0.500000000  0.000000000  0.833837134
     0.000000000  0.000000000  0.998527610
     0.000000000  0.000000000  0.329676651
     0.000000000  0.000000000  0.666511765

  ion indices of the primitive-cell ions
   primitive index   ion index
                 1           1
                 2           2
                 3           3
                 4           4
                 5           5
                 6           6
                 7           7
                 8           8
                 9           9
                10          10
                11          11
                12          12

----------------------------------------------------------------------------------------

 
 
 KPOINTS: pymatgen with grid density = 8800 / numb

Automatic generation of k-mesh.
 Grid dimensions read from file:
 generate k-points for:   13   13    4

 Generating k-lattice:

  Cartesian coordinates                     Fractional coordinates (reciprocal lattice)
     0.020911800  0.000000000  0.000000000     0.076923077  0.000000000  0.000000000
     0.000000000  0.020911800  0.000000000     0.000000000  0.076923077  0.000000000
     0.000000000  0.000000000  0.022402347     0.000000000  0.000000000  0.250000000

  Length of vectors
     0.020911800  0.020911800  0.022402347

  Shift w.r.t. Gamma in fractional coordinates (k-lattice)
     0.000000000  0.000000000  0.000000000

 
 Subroutine IBZKPT returns following result:
 ===========================================
 
 Found     84 irreducible k-points:
 
 Following reciprocal coordinates:
            Coordinates               Weight
  0.000000  0.000000  0.000000      1.000000
  0.076923  0.000000  0.000000      4.000000
  0.153846  0.000000  0.000000      4.000000
  0.230769  0.000000  0.000000      4.000000
  0.307692  0.000000  0.000000      4.000000
  0.384615  0.000000  0.000000      4.000000
  0.461538  0.000000  0.000000      4.000000
  0.076923  0.076923  0.000000      4.000000
  0.153846  0.076923  0.000000      8.000000
  0.230769  0.076923  0.000000      8.000000
  0.307692  0.076923  0.000000      8.000000
  0.384615  0.076923  0.000000      8.000000
  0.461538  0.076923  0.000000      8.000000
  0.153846  0.153846  0.000000      4.000000
  0.230769  0.153846  0.000000      8.000000
  0.307692  0.153846  0.000000      8.000000
  0.384615  0.153846  0.000000      8.000000
  0.461538  0.153846  0.000000      8.000000
  0.230769  0.230769  0.000000      4.000000
  0.307692  0.230769  0.000000      8.000000
  0.384615  0.230769  0.000000      8.000000
  0.461538  0.230769  0.000000      8.000000
  0.307692  0.307692  0.000000      4.000000
  0.384615  0.307692  0.000000      8.000000
  0.461538  0.307692  0.000000      8.000000
  0.384615  0.384615  0.000000      4.000000
  0.461538  0.384615  0.000000      8.000000
  0.461538  0.461538  0.000000      4.000000
  0.000000  0.000000  0.250000      2.000000
  0.076923  0.000000  0.250000      8.000000
  0.153846  0.000000  0.250000      8.000000
  0.230769  0.000000  0.250000      8.000000
  0.307692  0.000000  0.250000      8.000000
  0.384615  0.000000  0.250000      8.000000
  0.461538  0.000000  0.250000      8.000000
  0.076923  0.076923  0.250000      8.000000
  0.153846  0.076923  0.250000     16.000000
  0.230769  0.076923  0.250000     16.000000
  0.307692  0.076923  0.250000     16.000000
  0.384615  0.076923  0.250000     16.000000
  0.461538  0.076923  0.250000     16.000000
  0.153846  0.153846  0.250000      8.000000
  0.230769  0.153846  0.250000     16.000000
  0.307692  0.153846  0.250000     16.000000
  0.384615  0.153846  0.250000     16.000000
  0.461538  0.153846  0.250000     16.000000
  0.230769  0.230769  0.250000      8.000000
  0.307692  0.230769  0.250000     16.000000
  0.384615  0.230769  0.250000     16.000000
  0.461538  0.230769  0.250000     16.000000
  0.307692  0.307692  0.250000      8.000000
  0.384615  0.307692  0.250000     16.000000
  0.461538  0.307692  0.250000     16.000000
  0.384615  0.384615  0.250000      8.000000
  0.461538  0.384615  0.250000     16.000000
  0.461538  0.461538  0.250000      8.000000
  0.000000  0.000000  0.500000      1.000000
  0.076923  0.000000  0.500000      4.000000
  0.153846  0.000000  0.500000      4.000000
  0.230769  0.000000  0.500000      4.000000
  0.307692  0.000000  0.500000      4.000000
  0.384615  0.000000  0.500000      4.000000
  0.461538  0.000000  0.500000      4.000000
  0.076923  0.076923  0.500000      4.000000
  0.153846  0.076923  0.500000      8.000000
  0.230769  0.076923  0.500000      8.000000
  0.307692  0.076923  0.500000      8.000000
  0.384615  0.076923  0.500000      8.000000
  0.461538  0.076923  0.500000      8.000000
  0.153846  0.153846  0.500000      4.000000
  0.230769  0.153846  0.500000      8.000000
  0.307692  0.153846  0.500000      8.000000
  0.384615  0.153846  0.500000      8.000000
  0.461538  0.153846  0.500000      8.000000
  0.230769  0.230769  0.500000      4.000000
  0.307692  0.230769  0.500000      8.000000
  0.384615  0.230769  0.500000      8.000000
  0.461538  0.230769  0.500000      8.000000
  0.307692  0.307692  0.500000      4.000000
  0.384615  0.307692  0.500000      8.000000
  0.461538  0.307692  0.500000      8.000000
  0.384615  0.384615  0.500000      4.000000
  0.461538  0.384615  0.500000      8.000000
  0.461538  0.461538  0.500000      4.000000
 
 Following cartesian coordinates:
            Coordinates               Weight
  0.000000  0.000000  0.000000      1.000000
  0.020912  0.000000  0.000000      4.000000
  0.041824  0.000000  0.000000      4.000000
  0.062735  0.000000  0.000000      4.000000
  0.083647  0.000000  0.000000      4.000000
  0.104559  0.000000  0.000000      4.000000
  0.125471  0.000000  0.000000      4.000000
  0.020912  0.020912  0.000000      4.000000
  0.041824  0.020912  0.000000      8.000000
  0.062735  0.020912  0.000000      8.000000
  0.083647  0.020912  0.000000      8.000000
  0.104559  0.020912  0.000000      8.000000
  0.125471  0.020912  0.000000      8.000000
  0.041824  0.041824  0.000000      4.000000
  0.062735  0.041824  0.000000      8.000000
  0.083647  0.041824  0.000000      8.000000
  0.104559  0.041824  0.000000      8.000000
  0.125471  0.041824  0.000000      8.000000
  0.062735  0.062735  0.000000      4.000000
  0.083647  0.062735  0.000000      8.000000
  0.104559  0.062735  0.000000      8.000000
  0.125471  0.062735  0.000000      8.000000
  0.083647  0.083647  0.000000      4.000000
  0.104559  0.083647  0.000000      8.000000
  0.125471  0.083647  0.000000      8.000000
  0.104559  0.104559  0.000000      4.000000
  0.125471  0.104559  0.000000      8.000000
  0.125471  0.125471  0.000000      4.000000
  0.000000  0.000000  0.022402      2.000000
  0.020912  0.000000  0.022402      8.000000
  0.041824  0.000000  0.022402      8.000000
  0.062735  0.000000  0.022402      8.000000
  0.083647  0.000000  0.022402      8.000000
  0.104559  0.000000  0.022402      8.000000
  0.125471  0.000000  0.022402      8.000000
  0.020912  0.020912  0.022402      8.000000
  0.041824  0.020912  0.022402     16.000000
  0.062735  0.020912  0.022402     16.000000
  0.083647  0.020912  0.022402     16.000000
  0.104559  0.020912  0.022402     16.000000
  0.125471  0.020912  0.022402     16.000000
  0.041824  0.041824  0.022402      8.000000
  0.062735  0.041824  0.022402     16.000000
  0.083647  0.041824  0.022402     16.000000
  0.104559  0.041824  0.022402     16.000000
  0.125471  0.041824  0.022402     16.000000
  0.062735  0.062735  0.022402      8.000000
  0.083647  0.062735  0.022402     16.000000
  0.104559  0.062735  0.022402     16.000000
  0.125471  0.062735  0.022402     16.000000
  0.083647  0.083647  0.022402      8.000000
  0.104559  0.083647  0.022402     16.000000
  0.125471  0.083647  0.022402     16.000000
  0.104559  0.104559  0.022402      8.000000
  0.125471  0.104559  0.022402     16.000000
  0.125471  0.125471  0.022402      8.000000
  0.000000  0.000000  0.044805      1.000000
  0.020912  0.000000  0.044805      4.000000
  0.041824  0.000000  0.044805      4.000000
  0.062735  0.000000  0.044805      4.000000
  0.083647  0.000000  0.044805      4.000000
  0.104559  0.000000  0.044805      4.000000
  0.125471  0.000000  0.044805      4.000000
  0.020912  0.020912  0.044805      4.000000
  0.041824  0.020912  0.044805      8.000000
  0.062735  0.020912  0.044805      8.000000
  0.083647  0.020912  0.044805      8.000000
  0.104559  0.020912  0.044805      8.000000
  0.125471  0.020912  0.044805      8.000000
  0.041824  0.041824  0.044805      4.000000
  0.062735  0.041824  0.044805      8.000000
  0.083647  0.041824  0.044805      8.000000
  0.104559  0.041824  0.044805      8.000000
  0.125471  0.041824  0.044805      8.000000
  0.062735  0.062735  0.044805      4.000000
  0.083647  0.062735  0.044805      8.000000
  0.104559  0.062735  0.044805      8.000000
  0.125471  0.062735  0.044805      8.000000
  0.083647  0.083647  0.044805      4.000000
  0.104559  0.083647  0.044805      8.000000
  0.125471  0.083647  0.044805      8.000000
  0.104559  0.104559  0.044805      4.000000
  0.125471  0.104559  0.044805      8.000000
  0.125471  0.125471  0.044805      4.000000
 


--------------------------------------------------------------------------------------------------------




 Dimension of arrays:
   k-points           NKPTS =     84   k-points in BZ     NKDIM =     84   number of bands    NBANDS=    128
   number of dos      NEDOS =    301   number of ions     NIONS =     12
   non local maximal  LDIM  =      6   non local SUM 2l+1 LMDIM =     18
   total plane-waves  NPLWV =  65856
   max r-space proj   IRMAX =      1   max aug-charges    IRDMAX=  26612
   dimension x,y,z NGX =    28 NGY =   28 NGZ =   84
   dimension x,y,z NGXF=    56 NGYF=   56 NGZF=  168
   support grid    NGXF=    56 NGYF=   56 NGZF=  168
   ions per type =               9   3
   NGX,Y,Z   is equivalent  to a cutoff of  12.65, 12.65, 12.51 a.u.
   NGXF,Y,Z  is equivalent  to a cutoff of  25.31, 25.31, 25.03 a.u.

 SYSTEM =  unknown system                          
 POSCAR =  Fe9 Pt3                                 

 Startparameter for this run:
   NWRITE =      2    write-flag & timer
   PREC   = accura    normal or accurate (medium, high low for compatibility)
   ISTART =      0    job   : 0-new  1-cont  2-samecut
   ICHARG =      2    charge: 1-file 2-atom 10-const
   ISPIN  =      2    spin polarized calculation?
   LNONCOLLINEAR =      F non collinear calculations
   LSORBIT =      F    spin-orbit coupling
   INIWAV =      1    electr: 0-lowe 1-rand  2-diag
   LASPH  =      F    aspherical Exc in radial PAW
 Electronic Relaxation 1
   ENCUT  =  520.0 eV  38.22 Ry    6.18 a.u.   6.84  6.84 20.75*2*pi/ulx,y,z
   ENINI  =  520.0     initial cutoff
   ENAUG  =  578.3 eV  augmentation charge cutoff
   NELM   =    200;   NELMIN=  2; NELMDL=  0     # of ELM steps 
   EDIFF  = 0.1E-05   stopping-criterion for ELM
   LREAL  =      F    real-space projection
   NLSPLINE    = F    spline interpolate recip. space projectors
   LCOMPAT=      F    compatible to vasp.4.4
   GGA_COMPAT  = T    GGA compatible to vasp.4.4-vasp.4.6
   LMAXPAW     = -100 max onsite density
   LMAXMIX     =    2 max onsite mixed and CHGCAR
   VOSKOWN=      0    Vosko Wilk Nusair interpolation
   ROPT   =    0.00000   0.00000
 Ionic relaxation
   EDIFFG = -.1E-01   stopping-criterion for IOM
   NSW    =    100    number of steps for IOM
   NBLOCK =      1;   KBLOCK =    100    inner block; outer block 
   IBRION =      2    ionic relax: 0-MD 1-quasi-New 2-CG
   NFREE  =      1    steps in history (QN), initial steepest desc. (CG)
   ISIF   =      4    stress and relaxation
   IWAVPR =     11    prediction:  0-non 1-charg 2-wave 3-comb
   ISYM   =      2    0-nonsym 1-usesym 2-fastsym
   LCORR  =      T    Harris-Foulkes like correction to forces

   POTIM  = 0.5000    time-step for ionic-motion
   TEIN   =    0.0    initial temperature
   TEBEG  =    0.0;   TEEND  =   0.0 temperature during run
   SMASS  =  -3.00    Nose mass-parameter (am)
   estimated Nose-frequenzy (Omega)   =  0.10E-29 period in steps = 0.13E+47 mass=  -0.309E-27a.u.
   SCALEE = 1.0000    scale energy and forces
   NPACO  =    256;   APACO  = 10.0  distance and # of slots for P.C.
   PSTRESS=    0.0 pullay stress

  Mass of Ions in am
   POMASS =  55.85195.08
  Ionic Valenz
   ZVAL   =  14.00 10.00
  Atomic Wigner-Seitz radii
   RWIGS  =  -1.00 -1.00
  virtual crystal weights 
   VCA    =   1.00  1.00
   NELECT =     156.0000    total number of electrons
   NUPDOWN=      -1.0000    fix difference up-down

 DOS related values:
   EMIN   =  10.00;   EMAX   =-10.00  energy-range for DOS
   EFERMI =   0.00;   METHOD = LEGACY      
   ISMEAR =     1;   SIGMA  =   0.20  broadening in eV -4-tet -1-fermi 0-gaus

 Electronic relaxation 2 (details)
   IALGO  =     58    algorithm
   LDIAG  =      T    sub-space diagonalisation (order eigenvalues)
   LSUBROT=      F    optimize rotation matrix (better conditioning)
   TURBO    =      0    0=normal 1=particle mesh
   IRESTART =      0    0=no restart 2=restart with 2 vectors
   NREBOOT  =      0    no. of reboots
   NMIN     =      0    reboot dimension
   EREF     =   0.00    reference energy to select bands
   IMIX   =      4    mixing-type and parameters
     AMIX     =   0.40;   BMIX     =  1.00
     AMIX_MAG =   1.60;   BMIX_MAG =  1.00
     AMIN     =   0.10
     WC   =   100.;   INIMIX=   1;  MIXPRE=   1;  MAXMIX= -45

 Intra band minimization:
   WEIMIN = 0.0010     energy-eigenvalue tresh-hold
   EBREAK =  0.20E-08  absolut break condition
   DEPER  =   0.30     relativ break condition  

   TIME   =   0.40     timestep for ELM

  volume/ion in A,a.u.               =      12.58        84.92
  Fermi-wavevector in a.u.,A,eV,Ry     =   1.654972  3.127444 37.265448  2.738933
  Thomas-Fermi vector in A             =   2.743148
 
 Write flags
   LWAVE        =      F    write WAVECAR
   LDOWNSAMPLE  =      F    k-point downsampling of WAVECAR
   LCHARG       =      T    write CHGCAR
   LVTOT        =      F    write LOCPOT, total local potential
   LVHAR        =      F    write LOCPOT, Hartree potential only
   WRT_POTENTIAL= false  ! write potential to hdf5 file
   LELF         =      F    write electronic localiz. function (ELF)
   LORBIT       =     11    0 simple, 1 ext, 2 COOP (PROOUT), +10 PAW based schemes


 Dipole corrections
   LMONO      =      F    monopole corrections only (constant potential shift)
   LDIPOL     =      F    correct potential (dipole corrections)
   IDIPOL     =      0    1-x, 2-y, 3-z, 4-all directions 
   EPSILON    =  1.0000000 bulk dielectric constant
   LVACPOTAV  =      F  vacuum potentials using an averaging scheme for the charge density
   VACPOTFLAT =  0.1000000 required flatness to determine vacuum potential
 Exchange correlation treatment:
   GGA     = PE    functional components
   XC_C    = 1    coefficients multiplying the functional components
   LIBXC   =     F    Libxc                    
   VOSKOWN =     0    Vosko Wilk Nusair interpolation
   LHFCALC =     F    Hartree Fock is set to
   LHFONE  =     F    Hartree Fock one center treatment
   AEXX    =    0.0000 exact exchange contribution

 Parameters of functionals:
   PE:
     No parameter
 
 Van der Waals corrections
   IVDW    =     0    specifies the selected vdW correction

 Linear response parameters
   LEPSILON=     F    determine dielectric tensor
   LRPA    =     F    only Hartree local field effects (RPA)
   LNABLA  =     F    use nabla operator in PAW spheres
   LVEL    =     F    velocity operator in full k-point grid
   CSHIFT  =0.1000    complex shift for real part using Kramers Kronig
   OMEGAMAX=  -1.0    maximum frequency
   DEG_THRESHOLD= 0.2000000E-02 threshold for treating states as degnerate
   RTIME   =   -0.100 relaxation time in fs
  (WPLASMAI=    0.000 imaginary part of plasma frequency in eV, 0.658/RTIME)
   DFIELD  = 0.0000000 0.0000000 0.0000000 field for delta impulse in time
 
  Optional k-point grid parameters
   LKPOINTS_OPT  =     F    use optional k-point grid
   KPOINTS_OPT_MODE=     1    mode for optional k-point grid
 
 Orbital magnetization related:
   ORBITALMAG=     F  switch on orbital magnetization
   LCHIMAG   =     F  perturbation theory with respect to B field
   DQ        =  0.001000  dq finite difference perturbation B field
   LLRAUG    =     F  two centre corrections for induced B field
   LBONE     =     F  B-component reconstruction in AE one-centre
   LVGVCALC  =     T  calculate vGv susceptibility
   LVGVAPPL  =     F  apply vGv susceptibility instead of pGv for G=0

 Random number generation:
   RANDOM_GENERATOR = DEFAULT
   PCG_SEED         = not used


--------------------------------------------------------------------------------------------------------


 conjugate gradient relaxation of ions
 charge density and potential will be updated during run
 spin polarized calculation
 Conjugate gradient for all bands (Freysoldt, et al. PRB 79, 241103 (2009))
 preconditioned conjugated gradient                                        
 perform sub-space diagonalisation
    before iterative eigenvector-optimisation
 modified Broyden-mixing scheme, WC =      100.0
 initial mixing is a Kerker type mixing with AMIX =  0.4000 and BMIX =      1.0000
 Hartree-type preconditioning will be used
 using additional bands           50
 reciprocal scheme for non local part
 use partial core corrections
 no Harris-corrections to forces 
 use gradient corrections 
 use of overlap-Matrix (Vanderbilt PP)
 Methfessel and Paxton  Order N= 1 SIGMA  =   0.20


--------------------------------------------------------------------------------------------------------


  energy-cutoff  :      520.00
  volume of cell :      151.00
      direct lattice vectors                 reciprocal lattice vectors
     3.678453157  0.000000000  0.000000000     0.271853401  0.000000000  0.000000000
     0.000000000  3.678453157  0.000000000     0.000000000  0.271853401  0.000000000
     0.000000000  0.000000000 11.159544990     0.000000000  0.000000000  0.089609388

  length of vectors
     3.678453157  3.678453157 11.159544990     0.271853401  0.271853401  0.089609388


 
 k-points in units of 2pi/SCALE and weight: pymatgen with grid density = 8800 / numb
   0.00000000  0.00000000  0.00000000       0.001
   0.02091180  0.00000000  0.00000000       0.006
   0.04182360  0.00000000  0.00000000       0.006
   0.06273540  0.00000000  0.00000000       0.006
   0.08364720  0.00000000  0.00000000       0.006
   0.10455900  0.00000000  0.00000000       0.006
   0.12547080  0.00000000  0.00000000       0.006
   0.02091180  0.02091180  0.00000000       0.006
   0.04182360  0.02091180  0.00000000       0.012
   0.06273540  0.02091180  0.00000000       0.012
   0.08364720  0.02091180  0.00000000       0.012
   0.10455900  0.02091180  0.00000000       0.012
   0.12547080  0.02091180  0.00000000       0.012
   0.04182360  0.04182360  0.00000000       0.006
   0.06273540  0.04182360  0.00000000       0.012
   0.08364720  0.04182360  0.00000000       0.012
   0.10455900  0.04182360  0.00000000       0.012
   0.12547080  0.04182360  0.00000000       0.012
   0.06273540  0.06273540  0.00000000       0.006
   0.08364720  0.06273540  0.00000000       0.012
   0.10455900  0.06273540  0.00000000       0.012
   0.12547080  0.06273540  0.00000000       0.012
   0.08364720  0.08364720  0.00000000       0.006
   0.10455900  0.08364720  0.00000000       0.012
   0.12547080  0.08364720  0.00000000       0.012
   0.10455900  0.10455900  0.00000000       0.006
   0.12547080  0.10455900  0.00000000       0.012
   0.12547080  0.12547080  0.00000000       0.006
   0.00000000  0.00000000  0.02240235       0.003
   0.02091180  0.00000000  0.02240235       0.012
   0.04182360  0.00000000  0.02240235       0.012
   0.06273540  0.00000000  0.02240235       0.012
   0.08364720  0.00000000  0.02240235       0.012
   0.10455900  0.00000000  0.02240235       0.012
   0.12547080  0.00000000  0.02240235       0.012
   0.02091180  0.02091180  0.02240235       0.012
   0.04182360  0.02091180  0.02240235       0.024
   0.06273540  0.02091180  0.02240235       0.024
   0.08364720  0.02091180  0.02240235       0.024
   0.10455900  0.02091180  0.02240235       0.024
   0.12547080  0.02091180  0.02240235       0.024
   0.04182360  0.04182360  0.02240235       0.012
   0.06273540  0.04182360  0.02240235       0.024
   0.08364720  0.04182360  0.02240235       0.024
   0.10455900  0.04182360  0.02240235       0.024
   0.12547080  0.04182360  0.02240235       0.024
   0.06273540  0.06273540  0.02240235       0.012
   0.08364720  0.06273540  0.02240235       0.024
   0.10455900  0.06273540  0.02240235       0.024
   0.12547080  0.06273540  0.02240235       0.024
   0.08364720  0.08364720  0.02240235       0.012
   0.10455900  0.08364720  0.02240235       0.024
   0.12547080  0.08364720  0.02240235       0.024
   0.10455900  0.10455900  0.02240235       0.012
   0.12547080  0.10455900  0.02240235       0.024
   0.12547080  0.12547080  0.02240235       0.012
   0.00000000  0.00000000  0.04480469       0.001
   0.02091180  0.00000000  0.04480469       0.006
   0.04182360  0.00000000  0.04480469       0.006
   0.06273540  0.00000000  0.04480469       0.006
   0.08364720  0.00000000  0.04480469       0.006
   0.10455900  0.00000000  0.04480469       0.006
   0.12547080  0.00000000  0.04480469       0.006
   0.02091180  0.02091180  0.04480469       0.006
   0.04182360  0.02091180  0.04480469       0.012
   0.06273540  0.02091180  0.04480469       0.012
   0.08364720  0.02091180  0.04480469       0.012
   0.10455900  0.02091180  0.04480469       0.012
   0.12547080  0.02091180  0.04480469       0.012
   0.04182360  0.04182360  0.04480469       0.006
   0.06273540  0.04182360  0.04480469       0.012
   0.08364720  0.04182360  0.04480469       0.012
   0.10455900  0.04182360  0.04480469       0.012
   0.12547080  0.04182360  0.04480469       0.012
   0.06273540  0.06273540  0.04480469       0.006
   0.08364720  0.06273540  0.04480469       0.012
   0.10455900  0.06273540  0.04480469       0.012
   0.12547080  0.06273540  0.04480469       0.012
   0.08364720  0.08364720  0.04480469       0.006
   0.10455900  0.08364720  0.04480469       0.012
   0.12547080  0.08364720  0.04480469       0.012
   0.10455900  0.10455900  0.04480469       0.006
   0.12547080  0.10455900  0.04480469       0.012
   0.12547080  0.12547080  0.04480469       0.006
 
 k-points in reciprocal lattice and weights: pymatgen with grid density = 8800 / numb
   0.00000000  0.00000000  0.00000000       0.001
   0.07692308  0.00000000  0.00000000       0.006
   0.15384615  0.00000000  0.00000000       0.006
   0.23076923  0.00000000  0.00000000       0.006
   0.30769231  0.00000000  0.00000000       0.006
   0.38461538  0.00000000  0.00000000       0.006
   0.46153846  0.00000000  0.00000000       0.006
   0.07692308  0.07692308  0.00000000       0.006
   0.15384615  0.07692308  0.00000000       0.012
   0.23076923  0.07692308  0.00000000       0.012
   0.30769231  0.07692308  0.00000000       0.012
   0.38461538  0.07692308  0.00000000       0.012
   0.46153846  0.07692308  0.00000000       0.012
   0.15384615  0.15384615  0.00000000       0.006
   0.23076923  0.15384615  0.00000000       0.012
   0.30769231  0.15384615  0.00000000       0.012
   0.38461538  0.15384615  0.00000000       0.012
   0.46153846  0.15384615  0.00000000       0.012
   0.23076923  0.23076923  0.00000000       0.006
   0.30769231  0.23076923  0.00000000       0.012
   0.38461538  0.23076923  0.00000000       0.012
   0.46153846  0.23076923  0.00000000       0.012
   0.30769231  0.30769231  0.00000000       0.006
   0.38461538  0.30769231  0.00000000       0.012
   0.46153846  0.30769231  0.00000000       0.012
   0.38461538  0.38461538  0.00000000       0.006
   0.46153846  0.38461538  0.00000000       0.012
   0.46153846  0.46153846  0.00000000       0.006
   0.00000000  0.00000000  0.25000000       0.003
   0.07692308  0.00000000  0.25000000       0.012
   0.15384615  0.00000000  0.25000000       0.012
   0.23076923  0.00000000  0.25000000       0.012
   0.30769231  0.00000000  0.25000000       0.012
   0.38461538  0.00000000  0.25000000       0.012
   0.46153846  0.00000000  0.25000000       0.012
   0.07692308  0.07692308  0.25000000       0.012
   0.15384615  0.07692308  0.25000000       0.024
   0.23076923  0.07692308  0.25000000       0.024
   0.30769231  0.07692308  0.25000000       0.024
   0.38461538  0.07692308  0.25000000       0.024
   0.46153846  0.07692308  0.25000000       0.024
   0.15384615  0.15384615  0.25000000       0.012
   0.23076923  0.15384615  0.25000000       0.024
   0.30769231  0.15384615  0.25000000       0.024
   0.38461538  0.15384615  0.25000000       0.024
   0.46153846  0.15384615  0.25000000       0.024
   0.23076923  0.23076923  0.25000000       0.012
   0.30769231  0.23076923  0.25000000       0.024
   0.38461538  0.23076923  0.25000000       0.024
   0.46153846  0.23076923  0.25000000       0.024
   0.30769231  0.30769231  0.25000000       0.012
   0.38461538  0.30769231  0.25000000       0.024
   0.46153846  0.30769231  0.25000000       0.024
   0.38461538  0.38461538  0.25000000       0.012
   0.46153846  0.38461538  0.25000000       0.024
   0.46153846  0.46153846  0.25000000       0.012
   0.00000000  0.00000000  0.50000000       0.001
   0.07692308  0.00000000  0.50000000       0.006
   0.15384615  0.00000000  0.50000000       0.006
   0.23076923  0.00000000  0.50000000       0.006
   0.30769231  0.00000000  0.50000000       0.006
   0.38461538  0.00000000  0.50000000       0.006
   0.46153846  0.00000000  0.50000000       0.006
   0.07692308  0.07692308  0.50000000       0.006
   0.15384615  0.07692308  0.50000000       0.012
   0.23076923  0.07692308  0.50000000       0.012
   0.30769231  0.07692308  0.50000000       0.012
   0.38461538  0.07692308  0.50000000       0.012
   0.46153846  0.07692308  0.50000000       0.012
   0.15384615  0.15384615  0.50000000       0.006
   0.23076923  0.15384615  0.50000000       0.012
   0.30769231  0.15384615  0.50000000       0.012
   0.38461538  0.15384615  0.50000000       0.012
   0.46153846  0.15384615  0.50000000       0.012
   0.23076923  0.23076923  0.50000000       0.006
   0.30769231  0.23076923  0.50000000       0.012
   0.38461538  0.23076923  0.50000000       0.012
   0.46153846  0.23076923  0.50000000       0.012
   0.30769231  0.30769231  0.50000000       0.006
   0.38461538  0.30769231  0.50000000       0.012
   0.46153846  0.30769231  0.50000000       0.012
   0.38461538  0.38461538  0.50000000       0.006
   0.46153846  0.38461538  0.50000000       0.012
   0.46153846  0.46153846  0.50000000       0.006
 
 position of ions in fractional coordinates (direct lattice) 
   0.00000000  0.50000000  0.16668560
   0.00000000  0.50000000  0.49917878
   0.00000000  0.50000000  0.83383713
   0.50000000  0.50000000  0.00469560
   0.50000000  0.50000000  0.33702476
   0.50000000  0.50000000  0.66416060
   0.50000000  0.00000000  0.16668560
   0.50000000  0.00000000  0.49917878
   0.50000000  0.00000000  0.83383713
   0.00000000  0.00000000  0.99852761
   0.00000000  0.00000000  0.32967665
   0.00000000  0.00000000  0.66651176
 
 position of ions in cartesian coordinates  (Angst):
   0.00000000  1.83922658  1.86013540
   0.00000000  1.83922658  5.57060806
   0.00000000  1.83922658  9.30524301
   1.83922658  1.83922658  0.05240071
   1.83922658  1.83922658  3.76104296
   1.83922658  1.83922658  7.41173010
   1.83922658  0.00000000  1.86013540
   1.83922658  0.00000000  5.57060806
   1.83922658  0.00000000  9.30524301
   0.00000000  0.00000000 11.14311379
   0.00000000  0.00000000  3.67904142
   0.00000000  0.00000000  7.43796803
 


--------------------------------------------------------------------------------------------------------


 k-point     1 :   0.0000 0.0000 0.0000  plane waves:    4049
 k-point     2 :   0.0769 0.0000 0.0000  plane waves:    4049
 k-point     3 :   0.1538 0.0000 0.0000  plane waves:    4057
 k-point     4 :   0.2308 0.0000 0.0000  plane waves:    4052
 k-point     5 :   0.3077 0.0000 0.0000  plane waves:    4060
 k-point     6 :   0.3846 0.0000 0.0000  plane waves:    4070
 k-point     7 :   0.4615 0.0000 0.0000  plane waves:    4074
 k-point     8 :   0.0769 0.0769 0.0000  plane waves:    4057
 k-point     9 :   0.1538 0.0769 0.0000  plane waves:    4045
 k-point    10 :   0.2308 0.0769 0.0000  plane waves:    4050
 k-point    11 :   0.3077 0.0769 0.0000  plane waves:    4070
 k-point    12 :   0.3846 0.0769 0.0000  plane waves:    4070
 k-point    13 :   0.4615 0.0769 0.0000  plane waves:    4062
 k-point    14 :   0.1538 0.1538 0.0000  plane waves:    4059
 k-point    15 :   0.2308 0.1538 0.0000  plane waves:    4063
 k-point    16 :   0.3077 0.1538 0.0000  plane waves:    4064
 k-point    17 :   0.3846 0.1538 0.0000  plane waves:    4055
 k-point    18 :   0.4615 0.1538 0.0000  plane waves:    4052
 k-point    19 :   0.2308 0.2308 0.0000  plane waves:    4062
 k-point    20 :   0.3077 0.2308 0.0000  plane waves:    4069
 k-point    21 :   0.3846 0.2308 0.0000  plane waves:    4075
 k-point    22 :   0.4615 0.2308 0.0000  plane waves:    4077
 k-point    23 :   0.3077 0.3077 0.0000  plane waves:    4080
 k-point    24 :   0.3846 0.3077 0.0000  plane waves:    4084
 k-point    25 :   0.4615 0.3077 0.0000  plane waves:    4080
 k-point    26 :   0.3846 0.3846 0.0000  plane waves:    4082
 k-point    27 :   0.4615 0.3846 0.0000  plane waves:    4076
 k-point    28 :   0.4615 0.4615 0.0000  plane waves:    4090
 k-point    29 :   0.0000 0.0000 0.2500  plane waves:    4077
 k-point    30 :   0.0769 0.0000 0.2500  plane waves:    4074
 k-point    31 :   0.1538 0.0000 0.2500  plane waves:    4050
 k-point    32 :   0.2308 0.0000 0.2500  plane waves:    4055
 k-point    33 :   0.3077 0.0000 0.2500  plane waves:    4053
 k-point    34 :   0.3846 0.0000 0.2500  plane waves:    4066
 k-point    35 :   0.4615 0.0000 0.2500  plane waves:    4068
 k-point    36 :   0.0769 0.0769 0.2500  plane waves:    4064
 k-point    37 :   0.1538 0.0769 0.2500  plane waves:    4055
 k-point    38 :   0.2308 0.0769 0.2500  plane waves:    4054
 k-point    39 :   0.3077 0.0769 0.2500  plane waves:    4063
 k-point    40 :   0.3846 0.0769 0.2500  plane waves:    4063
 k-point    41 :   0.4615 0.0769 0.2500  plane waves:    4063
 k-point    42 :   0.1538 0.1538 0.2500  plane waves:    4044
 k-point    43 :   0.2308 0.1538 0.2500  plane waves:    4055
 k-point    44 :   0.3077 0.1538 0.2500  plane waves:    4059
 k-point    45 :   0.3846 0.1538 0.2500  plane waves:    4065
 k-point    46 :   0.4615 0.1538 0.2500  plane waves:    4064
 k-point    47 :   0.2308 0.2308 0.2500  plane waves:    4066
 k-point    48 :   0.3077 0.2308 0.2500  plane waves:    4075
 k-point    49 :   0.3846 0.2308 0.2500  plane waves:    4069
 k-point    50 :   0.4615 0.2308 0.2500  plane waves:    4068
 k-point    51 :   0.3077 0.3077 0.2500  plane waves:    4063
 k-point    52 :   0.3846 0.3077 0.2500  plane waves:    4078
 k-point    53 :   0.4615 0.3077 0.2500  plane waves:    4073
 k-point    54 :   0.3846 0.3846 0.2500  plane waves:    4076
 k-point    55 :   0.4615 0.3846 0.2500  plane waves:    4079
 k-point    56 :   0.4615 0.4615 0.2500  plane waves:    4081
 k-point    57 :   0.0000 0.0000 0.5000  plane waves:    4090
 k-point    58 :   0.0769 0.0000 0.5000  plane waves:    4096
 k-point    59 :   0.1538 0.0000 0.5000  plane waves:    4054
 k-point    60 :   0.2308 0.0000 0.5000  plane waves:    4058
 k-point    61 :   0.3077 0.0000 0.5000  plane waves:    4068
 k-point    62 :   0.3846 0.0000 0.5000  plane waves:    4056
 k-point    63 :   0.4615 0.0000 0.5000  plane waves:    4054
 k-point    64 :   0.0769 0.0769 0.5000  plane waves:    4066
 k-point    65 :   0.1538 0.0769 0.5000  plane waves:    4054
 k-point    66 :   0.2308 0.0769 0.5000  plane waves:    4058
 k-point    67 :   0.3077 0.0769 0.5000  plane waves:    4064
 k-point    68 :   0.3846 0.0769 0.5000  plane waves:    4048
 k-point    69 :   0.4615 0.0769 0.5000  plane waves:    4052
 k-point    70 :   0.1538 0.1538 0.5000  plane waves:    4052
 k-point    71 :   0.2308 0.1538 0.5000  plane waves:    4046
 k-point    72 :   0.3077 0.1538 0.5000  plane waves:    4064
 k-point    73 :   0.3846 0.1538 0.5000  plane waves:    4070
 k-point    74 :   0.4615 0.1538 0.5000  plane waves:    4072
 k-point    75 :   0.2308 0.2308 0.5000  plane waves:    4060
 k-point    76 :   0.3077 0.2308 0.5000  plane waves:    4070
 k-point    77 :   0.3846 0.2308 0.5000  plane waves:    4072
 k-point    78 :   0.4615 0.2308 0.5000  plane waves:    4076
 k-point    79 :   0.3077 0.3077 0.5000  plane waves:    4068
 k-point    80 :   0.3846 0.3077 0.5000  plane waves:    4062
 k-point    81 :   0.4615 0.3077 0.5000  plane waves:    4076
 k-point    82 :   0.3846 0.3846 0.5000  plane waves:    4098
 k-point    83 :   0.4615 0.3846 0.5000  plane waves:    4080
 k-point    84 :   0.4615 0.4615 0.5000  plane waves:    4086

 maximum and minimum number of plane-waves per node :      4098     4044

 maximum number of plane-waves:      4098
 maximum index in each direction: 
   IXMAX=    6   IYMAX=    6   IZMAX=   20
   IXMIN=   -7   IYMIN=   -7   IZMIN=  -21


 serial   3D FFT for wavefunctions
 parallel 3D FFT for charge:
    minimum data exchange during FFTs selected (reduces bandwidth)


 total amount of memory used by VASP MPI-rank0   279107. kBytes
=======================================================================

   base      :      30000. kBytes
   nonl-proj :     100657. kBytes
   fftplans  :        888. kBytes
   grid      :       6813. kBytes
   one-center:        373. kBytes
   wavefun   :     140376. kBytes
 
     INWAV:  cpu time      0.0000: real time      0.0005
 Broyden mixing: mesh for mixing (old mesh)
   NGX = 13   NGY = 13   NGZ = 41
  (NGX  = 56   NGY  = 56   NGZ  =168)
  gives a total of   6929 points

 initial charge density was supplied:
 charge density of overlapping atoms calculated
 number of electron     156.0000000 magnetization       8.2830000
 charge density for first step will be calculated from the start-wavefunctions


--------------------------------------------------------------------------------------------------------


 Maximum index for augmentation-charges         1052 (set IRDMAX)


--------------------------------------------------------------------------------------------------------


 First call to EWALD:  gamma=   0.333
 Maximum number of real-space cells 4x 4x 2
 Maximum number of reciprocal cells 2x 2x 5

    FEWALD:  cpu time      0.0016: real time      0.0017


--------------------------------------- Ionic step        1  -------------------------------------------




--------------------------------------- Iteration      1(   1)  ---------------------------------------


    POTLOK:  cpu time      0.0270: real time      0.0274
    SETDIJ:  cpu time      0.0099: real time      0.0226
    TRIAL :  cpu time      5.7870: real time      5.9578
    CORREC:  cpu time      0.0028: real time      0.0028
    --------------------------------------------
      LOOP:  cpu time      5.8559: real time      6.1409

 eigenvalue-minimisations  : 43040
 total energy-change (2. order) : 0.1767134E+04  (-0.9147057E+04)
 number of electron     156.0000000 magnetization       8.2830000
 augmentation part      156.0000000 magnetization       8.2830000

 Free energy of the ion-electron system (eV)
  ---------------------------------------------------
  alpha Z        PSCENC =      1127.08695075
  Ewald energy   TEWEN  =    -18286.36951534
  -Hartree energ DENC   =     -5895.36141493
  -exchange      EXHF   =         0.00000000
  -V(xc)+E(xc)   XCENC  =       657.76580655
  PAW double counting   =     20094.78312502   -20818.78582174
  entropy T*S    EENTRO =        -0.00058475
  eigenvalues    EBANDS =       583.91204418
  atomic energy  EATOM  =     24304.10294433
  ---------------------------------------------------
  free energy    TOTEN  =      1767.13353407 eV

  energy without entropy =     1767.13411882  energy(sigma->0) =     1767.13372899


--------------------------------------------------------------------------------------------------------




--------------------------------------- Iteration      1(   2)  ---------------------------------------


    TRIAL :  cpu time      5.7721: real time      5.9416
    CORREC:  cpu time      0.0025: real time      0.0026
    --------------------------------------------
      LOOP:  cpu time      5.7839: real time      5.9652

 eigenvalue-minimisations  : 43008
 total energy-change (2. order) :-0.1761568E+04  (-0.1672248E+04)
 number of electron     156.0000000 magnetization       8.2830000
 augmentation part      156.0000000 magnetization       8.2830000

 Free energy of the ion-electron system (eV)
  ---------------------------------------------------
  alpha Z        PSCENC =      1127.08695075
  Ewald energy   TEWEN  =    -18286.36951534
  -Hartree energ DENC   =     -5895.36141493
  -exchange      EXHF   =         0.00000000
  -V(xc)+E(xc)   XCENC  =       657.76580655
  PAW double counting   =     20094.78312502   -20818.78582174
  entropy T*S    EENTRO =         0.00207729
  eigenvalues    EBANDS =     -1177.65818721
  atomic energy  EATOM  =     24304.10294433
  ---------------------------------------------------
  free energy    TOTEN  =         5.56596472 eV

  energy without entropy =        5.56388744  energy(sigma->0) =        5.56527229


--------------------------------------------------------------------------------------------------------




--------------------------------------- Iteration      1(   3)  ---------------------------------------


    TRIAL :  cpu time      6.9659: real time      7.0119
    CORREC:  cpu time      0.0025: real time      0.0026
    --------------------------------------------
      LOOP:  cpu time      6.9764: real time      7.0361

 eigenvalue-minimisations  : 50688
 total energy-change (2. order) :-0.1091296E+03  (-0.1077618E+03)
 number of electron     156.0000000 magnetization       8.2830000
 augmentation part      156.0000000 magnetization       8.2830000

 Free energy of the ion-electron system (eV)
  ---------------------------------------------------
  alpha Z        PSCENC =      1127.08695075
  Ewald energy   TEWEN  =    -18286.36951534
  -Hartree energ DENC   =     -5895.36141493
  -exchange      EXHF   =         0.00000000
  -V(xc)+E(xc)   XCENC  =       657.76580655
  PAW double counting   =     20094.78312502   -20818.78582174
  entropy T*S    EENTRO =         0.00466855
  eigenvalues    EBANDS =     -1286.79037775
  atomic energy  EATOM  =     24304.10294433
  ---------------------------------------------------
  free energy    TOTEN  =      -103.56363456 eV

  energy without entropy =     -103.56830310  energy(sigma->0) =     -103.56519074


--------------------------------------------------------------------------------------------------------




--------------------------------------- Iteration      1(   4)  ---------------------------------------


    TRIAL :  cpu time      6.2583: real time      6.4419
    CORREC:  cpu time      0.0026: real time      0.0026
    --------------------------------------------
      LOOP:  cpu time      6.2685: real time      6.4664

 eigenvalue-minimisations  : 46048
 total energy-change (2. order) :-0.1557942E+01  (-0.1557631E+01)
 number of electron     156.0000000 magnetization       8.2830000
 augmentation part      156.0000000 magnetization       8.2830000

 Free energy of the ion-electron system (eV)
  ---------------------------------------------------
  alpha Z        PSCENC =      1127.08695075
  Ewald energy   TEWEN  =    -18286.36951534
  -Hartree energ DENC   =     -5895.36141493
  -exchange      EXHF   =         0.00000000
  -V(xc)+E(xc)   XCENC  =       657.76580655
  PAW double counting   =     20094.78312502   -20818.78582174
  entropy T*S    EENTRO =         0.00477773
  eigenvalues    EBANDS =     -1288.34842860
  atomic energy  EATOM  =     24304.10294433
  ---------------------------------------------------
  free energy    TOTEN  =      -105.12157623 eV

  energy without entropy =     -105.12635396  energy(sigma->0) =     -105.12316881


--------------------------------------------------------------------------------------------------------




--------------------------------------- Iteration      1(   5)  ---------------------------------------


    TRIAL :  cpu time      7.2249: real time      7.5305
    CORREC:  cpu time      0.0026: real time      0.0026
    CHARGE:  cpu time      0.1798: real time      0.1815
    --------------------------------------------
      LOOP:  cpu time      7.4160: real time      7.7360

 eigenvalue-minimisations  : 52896
 total energy-change (2. order) :-0.2929561E-01  (-0.2929482E-01)
 number of electron     156.0000124 magnetization       6.9876376
 augmentation part       79.2461985 magnetization       5.0240575

 Free energy of the ion-electron system (eV)
  ---------------------------------------------------
  alpha Z        PSCENC =      1127.08695075
  Ewald energy   TEWEN  =    -18286.36951534
  -Hartree energ DENC   =     -5895.36141493
  -exchange      EXHF   =         0.00000000
  -V(xc)+E(xc)   XCENC  =       657.76580655
  PAW double counting   =     20094.78312502   -20818.78582174
  entropy T*S    EENTRO =         0.00477817
  eigenvalues    EBANDS =     -1288.37772465
  atomic energy  EATOM  =     24304.10294433
  ---------------------------------------------------
  free energy    TOTEN  =      -105.15087184 eV

  energy without entropy =     -105.15565001  energy(sigma->0) =     -105.15246457


--------------------------------------------------------------------------------------------------------




--------------------------------------- Iteration      1(   6)  ---------------------------------------


    POTLOK:  cpu time      0.0223: real time      0.0224
    SETDIJ:  cpu time      0.0080: real time      0.0082
    TRIAL :  cpu time      2.7352: real time      2.7622
    CORREC:  cpu time      1.0986: real time      1.1087
    CHARGE:  cpu time      0.1681: real time      0.1690
    --------------------------------------------
      LOOP:  cpu time      4.0413: real time      4.0930

 eigenvalue-minimisations  :     0
 total energy-change (2. order) : 0.5396716E+02  (-0.1123779E+02)
 number of electron     156.0000126 magnetization       7.0978658
 augmentation part       79.9723089 magnetization       5.0468321

 Free energy of the ion-electron system (eV)
  ---------------------------------------------------
  alpha Z        PSCENC =      1127.08695075
  Ewald energy   TEWEN  =    -18286.36951534
  -Hartree energ DENC   =     -4801.77123923
  -exchange      EXHF   =         0.00000000
  -V(xc)+E(xc)   XCENC  =       611.72358570
  PAW double counting   =     21342.76372378   -22009.67693755
  entropy T*S    EENTRO =         0.00065448
  eigenvalues    EBANDS =     -2339.04799811
  atomic energy  EATOM  =     24304.10294433
  ---------------------------------------------------
  free energy    TOTEN  =       -51.18370751 eV

  energy without entropy =      -51.18436199  energy(sigma->0) =      -51.18392567


--------------------------------------------------------------------------------------------------------




--------------------------------------- Iteration      1(   7)  ---------------------------------------


    POTLOK:  cpu time      0.0216: real time      0.0218
    SETDIJ:  cpu time      0.0079: real time      0.0079
    TRIAL :  cpu time      2.7458: real time      2.9166
    CORREC:  cpu time      1.0972: real time      1.1081
    CHARGE:  cpu time      0.1662: real time      0.1672
    --------------------------------------------
      LOOP:  cpu time      4.0466: real time      4.2443

 eigenvalue-minimisations  :     0
 total energy-change (2. order) :-0.1453181E+02  (-0.1591943E+02)
 number of electron     156.0000129 magnetization       7.3103274
 augmentation part       82.6582829 magnetization       5.3301295

 Free energy of the ion-electron system (eV)
  ---------------------------------------------------
  alpha Z        PSCENC =      1127.08695075
  Ewald energy   TEWEN  =    -18286.36951534
  -Hartree energ DENC   =     -4895.15295779
  -exchange      EXHF   =         0.00000000
  -V(xc)+E(xc)   XCENC  =       615.75198158
  PAW double counting   =     21410.91465688   -22096.27197364
  entropy T*S    EENTRO =         0.00387848
  eigenvalues    EBANDS =     -2245.77825514
  atomic energy  EATOM  =     24304.10294433
  ---------------------------------------------------
  free energy    TOTEN  =       -65.71551388 eV

  energy without entropy =      -65.71939236  energy(sigma->0) =      -65.71680671


--------------------------------------------------------------------------------------------------------




--------------------------------------- Iteration      1(   8)  ---------------------------------------


    POTLOK:  cpu time      0.0216: real time      0.0218
    SETDIJ:  cpu time      0.0075: real time      0.0076
    TRIAL :  cpu time      2.8435: real time      2.8711
    CORREC:  cpu time      1.0901: real time      1.1020
    CHARGE:  cpu time      0.1618: real time      0.1627
    --------------------------------------------
      LOOP:  cpu time      4.1339: real time      4.1887

 eigenvalue-minimisations  :     0
 total energy-change (2. order) :-0.1697831E+02  (-0.4152991E+01)
 number of electron     156.0000130 magnetization       7.2833440
 augmentation part       83.6095348 magnetization       5.4139423

 Free energy of the ion-electron system (eV)
  ---------------------------------------------------
  alpha Z        PSCENC =      1127.08695075
  Ewald energy   TEWEN  =    -18286.36951534
  -Hartree energ DENC   =     -5274.69794943
  -exchange      EXHF   =         0.00000000
  -V(xc)+E(xc)   XCENC  =       631.39508173
  PAW double counting   =     21895.45027947   -22651.16207403
  entropy T*S    EENTRO =         0.00783382
  eigenvalues    EBANDS =     -1828.50341841
  atomic energy  EATOM  =     24304.10294433
  ---------------------------------------------------
  free energy    TOTEN  =       -82.69382245 eV

  energy without entropy =      -82.70165627  energy(sigma->0) =      -82.69643372


--------------------------------------------------------------------------------------------------------




--------------------------------------- Iteration      1(   9)  ---------------------------------------


    POTLOK:  cpu time      0.0217: real time      0.0220
    SETDIJ:  cpu time      0.0079: real time      0.0079
    TRIAL :  cpu time      2.7430: real time      2.7699
    CORREC:  cpu time      1.0828: real time      1.0938
    CHARGE:  cpu time      0.1601: real time      0.1610
    --------------------------------------------
      LOOP:  cpu time      4.0241: real time      4.0776

 eigenvalue-minimisations  :     0
 total energy-change (2. order) :-0.4312705E+01  (-0.1741448E+01)
 number of electron     156.0000131 magnetization       7.4061606
 augmentation part       84.0804550 magnetization       5.5272537

 Free energy of the ion-electron system (eV)
  ---------------------------------------------------
  alpha Z        PSCENC =      1127.08695075
  Ewald energy   TEWEN  =    -18286.36951534
  -Hartree energ DENC   =     -5408.35877800
  -exchange      EXHF   =         0.00000000
  -V(xc)+E(xc)   XCENC  =       637.06505856
  PAW double counting   =     22130.84930794   -22910.80233691
  entropy T*S    EENTRO =         0.01447575
  eigenvalues    EBANDS =     -1680.58799247
  atomic energy  EATOM  =     24304.10294433
  ---------------------------------------------------
  free energy    TOTEN  =       -87.00652732 eV

  energy without entropy =      -87.02100307  energy(sigma->0) =      -87.01135257


--------------------------------------------------------------------------------------------------------




--------------------------------------- Iteration      1(  10)  ---------------------------------------


    POTLOK:  cpu time      0.0215: real time      0.0217
    SETDIJ:  cpu time      0.0081: real time      0.0082
    TRIAL :  cpu time      2.6967: real time      2.8540
    CORREC:  cpu time      1.0953: real time      1.1066
    CHARGE:  cpu time      0.1593: real time      0.1601
    --------------------------------------------
      LOOP:  cpu time      3.9907: real time      4.1738

 eigenvalue-minimisations  :     0
 total energy-change (2. order) :-0.1526249E+01  (-0.8601612E+00)
 number of electron     156.0000132 magnetization       7.5878568
 augmentation part       84.3397864 magnetization       5.6355657

 Free energy of the ion-electron system (eV)
  ---------------------------------------------------
  alpha Z        PSCENC =      1127.08695075
  Ewald energy   TEWEN  =    -18286.36951534
  -Hartree energ DENC   =     -5469.81935063
  -exchange      EXHF   =         0.00000000
  -V(xc)+E(xc)   XCENC  =       639.79704746
  PAW double counting   =     22245.20470365   -23032.48655991
  entropy T*S    EENTRO =         0.01986667
  eigenvalues    EBANDS =     -1616.06347234
  atomic energy  EATOM  =     24304.10294433
  ---------------------------------------------------
  free energy    TOTEN  =       -88.53277628 eV

  energy without entropy =      -88.55264295  energy(sigma->0) =      -88.53939850


--------------------------------------------------------------------------------------------------------




--------------------------------------- Iteration      1(  11)  ---------------------------------------


    POTLOK:  cpu time      0.0214: real time      0.0216
    SETDIJ:  cpu time      0.0080: real time      0.0081
    TRIAL :  cpu time      2.7767: real time      2.8042
    CORREC:  cpu time      1.0770: real time      1.1839
    CHARGE:  cpu time      0.1577: real time      0.1585
    --------------------------------------------
      LOOP:  cpu time      4.0490: real time      4.1992

 eigenvalue-minimisations  :     0
 total energy-change (2. order) :-0.9775421E+00  (-0.7602497E+00)
 number of electron     156.0000132 magnetization       7.7314729
 augmentation part       84.4639808 magnetization       5.7236964

 Free energy of the ion-electron system (eV)
  ---------------------------------------------------
  alpha Z        PSCENC =      1127.08695075
  Ewald energy   TEWEN  =    -18286.36951534
  -Hartree energ DENC   =     -5500.76225062
  -exchange      EXHF   =         0.00000000
  -V(xc)+E(xc)   XCENC  =       641.23293486
  PAW double counting   =     22304.92366276   -23093.60836874
  entropy T*S    EENTRO =         0.02326968
  eigenvalues    EBANDS =     -1586.13654301
  atomic energy  EATOM  =     24304.10294433
  ---------------------------------------------------
  free energy    TOTEN  =       -89.51031835 eV

  energy without entropy =      -89.53358803  energy(sigma->0) =      -89.51807491


--------------------------------------------------------------------------------------------------------




--------------------------------------- Iteration      1(  12)  ---------------------------------------


    POTLOK:  cpu time      0.0215: real time      0.0217
    SETDIJ:  cpu time      0.0074: real time      0.0075
    TRIAL :  cpu time      2.7965: real time      2.9822
    CORREC:  cpu time      1.0887: real time      1.1003
    CHARGE:  cpu time      0.1545: real time      0.1554
    --------------------------------------------
      LOOP:  cpu time      4.0767: real time      4.2903

 eigenvalue-minimisations  :     0
 total energy-change (2. order) :-0.8407382E+00  (-0.1237299E+01)
 number of electron     156.0000132 magnetization       7.7809316
 augmentation part       84.6052374 magnetization       5.7968827

 Free energy of the ion-electron system (eV)
  ---------------------------------------------------
  alpha Z        PSCENC =      1127.08695075
  Ewald energy   TEWEN  =    -18286.36951534
  -Hartree energ DENC   =     -5510.41390521
  -exchange      EXHF   =         0.00000000
  -V(xc)+E(xc)   XCENC  =       641.81925540
  PAW double counting   =     22321.00009205   -23106.01101486
  entropy T*S    EENTRO =         0.03030023
  eigenvalues    EBANDS =     -1581.58913333
  atomic energy  EATOM  =     24304.10294433
  ---------------------------------------------------
  free energy    TOTEN  =       -90.35105652 eV

  energy without entropy =      -90.38135674  energy(sigma->0) =      -90.36115659


--------------------------------------------------------------------------------------------------------




--------------------------------------- Iteration      1(  13)  ---------------------------------------


    POTLOK:  cpu time      0.0215: real time      0.0217
    SETDIJ:  cpu time      0.0074: real time      0.0075
    TRIAL :  cpu time      2.8155: real time      2.8429
    CORREC:  cpu time      1.0888: real time      1.0999
    CHARGE:  cpu time      0.1531: real time      0.1541
    --------------------------------------------
      LOOP:  cpu time      4.0949: real time      4.1490

 eigenvalue-minimisations  :     0
 total energy-change (2. order) :-0.1423762E+01  (-0.3152057E+00)
 number of electron     156.0000132 magnetization       7.7287487
 augmentation part       84.6308322 magnetization       5.7879807

 Free energy of the ion-electron system (eV)
  ---------------------------------------------------
  alpha Z        PSCENC =      1127.08695075
  Ewald energy   TEWEN  =    -18286.36951534
  -Hartree energ DENC   =     -5513.33331512
  -exchange      EXHF   =         0.00000000
  -V(xc)+E(xc)   XCENC  =       642.39921044
  PAW double counting   =     22331.84875973   -23106.25915398
  entropy T*S    EENTRO =         0.03169112
  eigenvalues    EBANDS =     -1591.28099964
  atomic energy  EATOM  =     24304.10294433
  ---------------------------------------------------
  free energy    TOTEN  =       -91.77481862 eV

  energy without entropy =      -91.80650974  energy(sigma->0) =      -91.78538233


--------------------------------------------------------------------------------------------------------




--------------------------------------- Iteration      1(  14)  ---------------------------------------


    POTLOK:  cpu time      0.0213: real time      0.0215
    SETDIJ:  cpu time      0.0078: real time      0.0078
    TRIAL :  cpu time      2.7854: real time      2.8122
    CORREC:  cpu time      1.0729: real time      1.2172
    CHARGE:  cpu time      0.1554: real time      0.1563
    --------------------------------------------
      LOOP:  cpu time      4.0534: real time      4.2481

 eigenvalue-minimisations  :     0
 total energy-change (2. order) :-0.3943536E+00  (-0.1501626E+00)
 number of electron     156.0000132 magnetization       7.7078543
 augmentation part       84.6344041 magnetization       5.7895555

 Free energy of the ion-electron system (eV)
  ---------------------------------------------------
  alpha Z        PSCENC =      1127.08695075
  Ewald energy   TEWEN  =    -18286.36951534
  -Hartree energ DENC   =     -5513.02105352
  -exchange      EXHF   =         0.00000000
  -V(xc)+E(xc)   XCENC  =       642.52009008
  PAW double counting   =     22333.39463719   -23104.65213885
  entropy T*S    EENTRO =         0.02931207
  eigenvalues    EBANDS =     -1595.26277798
  atomic energy  EATOM  =     24304.10294433
  ---------------------------------------------------
  free energy    TOTEN  =       -92.16917222 eV

  energy without entropy =      -92.19848429  energy(sigma->0) =      -92.17894291


--------------------------------------------------------------------------------------------------------




--------------------------------------- Iteration      1(  15)  ---------------------------------------


    POTLOK:  cpu time      0.0214: real time      0.0216
    SETDIJ:  cpu time      0.0078: real time      0.0078
    TRIAL :  cpu time      2.7378: real time      2.7641
    CORREC:  cpu time      1.0920: real time      1.1031
    CHARGE:  cpu time      0.1548: real time      0.1557
    --------------------------------------------
      LOOP:  cpu time      4.0223: real time      4.0747

 eigenvalue-minimisations  :     0
 total energy-change (2. order) :-0.1374254E+00  (-0.2203937E+00)
 number of electron     156.0000131 magnetization       7.8008687
 augmentation part       84.6428722 magnetization       5.8583779

 Free energy of the ion-electron system (eV)
  ---------------------------------------------------
  alpha Z        PSCENC =      1127.08695075
  Ewald energy   TEWEN  =    -18286.36951534
  -Hartree energ DENC   =     -5513.71921976
  -exchange      EXHF   =         0.00000000
  -V(xc)+E(xc)   XCENC  =       642.58860690
  PAW double counting   =     22329.49237426   -23098.80584638
  entropy T*S    EENTRO =         0.02424342
  eigenvalues    EBANDS =     -1596.71220440
  atomic energy  EATOM  =     24304.10294433
  ---------------------------------------------------
  free energy    TOTEN  =       -92.30659758 eV

  energy without entropy =      -92.33084100  energy(sigma->0) =      -92.31467872


--------------------------------------------------------------------------------------------------------




--------------------------------------- Iteration      1(  16)  ---------------------------------------


    POTLOK:  cpu time      0.0214: real time      0.0217
    SETDIJ:  cpu time      0.0081: real time      0.0081
    TRIAL :  cpu time      2.7153: real time      2.7419
    CORREC:  cpu time      1.0943: real time      1.1050
    CHARGE:  cpu time      0.1560: real time      0.1568
    --------------------------------------------
      LOOP:  cpu time      4.0031: real time      4.0567

 eigenvalue-minimisations  :     0
 total energy-change (2. order) :-0.2126992E+00  (-0.2121401E+00)
 number of electron     156.0000131 magnetization       7.9418637
 augmentation part       84.6586388 magnetization       5.9463414

 Free energy of the ion-electron system (eV)
  ---------------------------------------------------
  alpha Z        PSCENC =      1127.08695075
  Ewald energy   TEWEN  =    -18286.36951534
  -Hartree energ DENC   =     -5518.94314746
  -exchange      EXHF   =         0.00000000
  -V(xc)+E(xc)   XCENC  =       642.82361496
  PAW double counting   =     22319.61196753   -23084.41160327
  entropy T*S    EENTRO =         0.02320515
  eigenvalues    EBANDS =     -1596.44475170
  atomic energy  EATOM  =     24304.10294433
  ---------------------------------------------------
  free energy    TOTEN  =       -92.51929677 eV

  energy without entropy =      -92.54250192  energy(sigma->0) =      -92.52703182


--------------------------------------------------------------------------------------------------------




--------------------------------------- Iteration      1(  17)  ---------------------------------------


    POTLOK:  cpu time      0.0213: real time      0.0215
    SETDIJ:  cpu time      0.0082: real time      0.0082
    TRIAL :  cpu time      2.6947: real time      2.8532
    CORREC:  cpu time      1.0799: real time      1.0911
    CHARGE:  cpu time      0.1518: real time      0.1527
    --------------------------------------------
      LOOP:  cpu time      3.9640: real time      4.1497

 eigenvalue-minimisations  :     0
 total energy-change (2. order) :-0.2289565E+00  (-0.1723335E+00)
 number of electron     156.0000132 magnetization       8.0310095
[...]
     66       9.3335      1.00000
     67       9.3859      1.00000
     68       9.4618      1.00000
     69       9.5179      1.00000
     70       9.7056      1.00028
     71       9.7589      1.00100
     72       9.8469      1.00585
     73       9.8894      1.01162
     74       9.9944      1.03316
     75      10.0021      1.03423
     76      10.2223      0.67952
     77      10.4944     -0.03459
     78      10.5309     -0.03395
     79      10.6114     -0.01707
     80      10.6614     -0.00853
     81      10.6972     -0.00462
     82      10.8927     -0.00004
     83      11.1620     -0.00000
     84      11.2180     -0.00000
     85      11.3173     -0.00000
     86      11.3354     -0.00000
     87      11.4690     -0.00000
     88      11.8414     -0.00000
     89      11.9522     -0.00000
     90      12.0346     -0.00000
     91      12.1130     -0.00000
     92      12.1858     -0.00000
     93      12.5155     -0.00000
     94      12.5602     -0.00000
     95      12.7587     -0.00000
     96      13.0298     -0.00000
     97      13.1921     -0.00000
     98      13.2138     -0.00000
     99      13.7052     -0.00000
    100      15.6943      0.00000
    101      17.6840      0.00000
    102      17.7179      0.00000
    103      17.7885      0.00000
    104      18.6765      0.00000
    105      18.8335      0.00000
    106      19.3512      0.00000
    107      19.5492      0.00000
    108      19.9214      0.00000
    109      20.0869      0.00000
    110      20.4834      0.00000
    111      20.5571      0.00000
    112      24.8107      0.00000
    113      24.9531      0.00000
    114      25.3635      0.00000
    115      25.4204      0.00000
    116      25.6909      0.00000
    117      25.8534      0.00000
    118      26.6262      0.00000
    119      26.7674      0.00000
    120      27.9060      0.00000
    121      27.9439      0.00000
    122      27.9774      0.00000
    123      28.4558      0.00000
    124      29.2568      0.00000
    125      29.5442      0.00000
    126      29.7357      0.00000
    127      29.9617      0.00000
    128      30.5689      0.00000


--------------------------------------------------------------------------------------------------------


 soft charge-density along one line, spin component           1
         0         1         2         3         4         5         6         7         8         9
 total charge-density along one line
 
 soft charge-density along one line, spin component           2
         0         1         2         3         4         5         6         7         8         9
 total charge-density along one line
 
 pseudopotential strength for first ion, spin component:           1
-42.678  -0.000  -0.000   6.651   0.000   0.000  -0.000   0.001
 -0.000 -42.715   0.000   0.000   6.665  -0.000  -0.000   0.000
 -0.000   0.000 -42.645   0.000  -0.000   6.636   0.000  -0.000
  6.651   0.000   0.000   5.896   0.000  -0.000   0.000  -0.000
  0.000   6.665  -0.000   0.000   5.892  -0.000   0.000  -0.000
  0.000  -0.000   6.636  -0.000  -0.000   5.898  -0.000   0.000
 -0.000  -0.000   0.000   0.000   0.000  -0.000  -0.252   0.000
  0.001   0.000  -0.000  -0.000  -0.000   0.000   0.000  -0.250
 -0.000   0.001   0.000   0.000   0.001  -0.000  -0.000  -0.000
 -0.000  -0.000  -0.007   0.000  -0.000   0.005  -0.000  -0.000
 -0.000  -0.004  -0.000   0.000   0.003   0.000   0.000   0.000
 -0.000  -0.000   0.000   0.000   0.000  -0.000  -0.795   0.000
  0.001   0.000  -0.000  -0.000  -0.000   0.000   0.000  -0.793
 -0.000   0.001   0.000   0.000   0.001  -0.000  -0.000  -0.000
 -0.000  -0.000  -0.007   0.000   0.000   0.005  -0.000  -0.000
 -0.000  -0.004   0.000   0.000   0.003   0.000   0.000   0.000
 -0.000   0.002   0.000  -0.000   0.001   0.000   0.000   0.000
 -0.000   0.006   0.000  -0.000   0.004   0.000   0.000   0.000
 pseudopotential strength for first ion, spin component:           2
-44.720  -0.000   0.000   7.511   0.000  -0.000  -0.000   0.005
 -0.000 -44.792  -0.000   0.000   7.539   0.000  -0.000   0.000
  0.000  -0.000 -44.617  -0.000   0.000   7.468   0.000  -0.000
  7.511   0.000  -0.000   5.655   0.000  -0.000   0.000  -0.003
  0.000   7.539   0.000   0.000   5.648   0.000   0.000  -0.000
 -0.000   0.000   7.468  -0.000   0.000   5.663  -0.000   0.000
 -0.000  -0.000   0.000   0.000   0.000  -0.000  -1.808  -0.000
  0.005   0.000  -0.000  -0.003  -0.000   0.000  -0.000  -1.982
 -0.000   0.014   0.000   0.000  -0.007  -0.000  -0.000  -0.000
 -0.000  -0.000   0.024   0.000   0.000  -0.011  -0.000  -0.000
 -0.000   0.009  -0.000   0.000  -0.004   0.000   0.000   0.000
 -0.000  -0.000   0.000   0.000   0.000  -0.000  -2.326  -0.000
  0.005   0.000  -0.000  -0.003  -0.000   0.000  -0.000  -2.497
 -0.000   0.014   0.000   0.000  -0.006  -0.000  -0.000  -0.000
 -0.000  -0.000   0.023   0.000   0.000  -0.011  -0.000  -0.000
 -0.000   0.009  -0.000   0.000  -0.004   0.000   0.000   0.000
 -0.000  -0.005   0.000  -0.000   0.004   0.000  -0.000   0.000
 -0.000  -0.013   0.000  -0.000   0.009   0.000  -0.000   0.000
 total augmentation occupancy for first ion, spin component:           1
  1.992   0.000   0.000  -0.027   0.000   0.000   0.000  -0.006   0.000   0.000   0.000   0.000   0.006   0.000   0.000   0.000
  0.000   1.992   0.000   0.000  -0.027   0.000   0.000   0.000  -0.004   0.000   0.002   0.000   0.000   0.004   0.000  -0.002
  0.000   0.000   1.992   0.000   0.000  -0.027  -0.000   0.000   0.000  -0.001  -0.000   0.000  -0.000   0.000   0.001   0.000
 -0.027   0.000   0.000   0.193   0.000   0.000   0.000  -0.016   0.000   0.000   0.000   0.000   0.022   0.000   0.000   0.000
  0.000  -0.027   0.000   0.000   0.193  -0.000   0.000   0.000  -0.010   0.000   0.016  -0.000   0.000   0.004   0.000  -0.026
  0.000   0.000  -0.027   0.000  -0.000   0.172   0.000  -0.000   0.000   0.011  -0.000   0.000   0.000   0.000  -0.031   0.000
  0.000   0.000  -0.000   0.000   0.000   0.000   2.680  -0.000   0.000   0.000   0.000  -1.480  -0.000   0.000  -0.000   0.000
 -0.006   0.000   0.000  -0.016   0.000  -0.000  -0.000   2.918   0.000   0.000   0.000   0.000  -2.045   0.000   0.000  -0.000
  0.000  -0.004   0.000   0.000  -0.010   0.000   0.000   0.000   3.276   0.000   0.225   0.000  -0.000  -1.909   0.000  -0.121
  0.000   0.000  -0.001   0.000   0.000   0.011   0.000   0.000   0.000   2.574   0.000   0.000   0.000   0.000  -1.418   0.000
  0.000   0.002  -0.000   0.000   0.016  -0.000   0.000   0.000   0.225   0.000   2.999   0.000   0.000  -0.122   0.000  -1.751
  0.000   0.000   0.000   0.000  -0.000   0.000  -1.480   0.000   0.000   0.000   0.000   1.711   0.000   0.000   0.000  -0.000
  0.006   0.000  -0.000   0.022   0.000   0.000  -0.000  -2.045  -0.000   0.000   0.000   0.000   2.413  -0.000   0.000  -0.000
  0.000   0.004   0.000   0.000   0.004   0.000   0.000   0.000  -1.909   0.000  -0.122   0.000  -0.000   1.855   0.000   0.043
  0.000   0.000   0.001   0.000   0.000  -0.031  -0.000   0.000   0.000  -1.418   0.000   0.000   0.000   0.000   1.643   0.000
  0.000  -0.002   0.000   0.000  -0.026   0.000   0.000  -0.000  -0.121   0.000  -1.751  -0.000  -0.000   0.043   0.000   1.788
  0.000  -0.001  -0.000   0.000   0.001   0.000   0.000   0.000  -0.113   0.000   0.193   0.000   0.000   0.076   0.000  -0.148
  0.000   0.001  -0.000   0.000   0.000   0.000   0.000   0.000   0.013   0.000  -0.012   0.000   0.000  -0.007   0.000   0.008
 total augmentation occupancy for first ion, spin component:           2
  0.002   0.000   0.000   0.008   0.000   0.000   0.000   0.002   0.000   0.000   0.000   0.000  -0.002  -0.000   0.000   0.000
  0.000   0.002   0.000   0.000   0.007  -0.000   0.000   0.000   0.005   0.000   0.004   0.000   0.000  -0.005   0.000  -0.005
  0.000   0.000   0.002   0.000  -0.000   0.008  -0.000   0.000   0.000   0.011   0.000  -0.000   0.000   0.000  -0.012   0.000
  0.008   0.000   0.000  -0.007   0.000   0.000   0.000   0.018   0.000  -0.000   0.000   0.000  -0.017  -0.000   0.000   0.000
  0.000   0.007  -0.000   0.000  -0.002   0.000   0.000   0.000  -0.008   0.000  -0.039   0.000   0.000  -0.007   0.000   0.016
  0.000  -0.000   0.008   0.000   0.000  -0.003   0.000   0.000   0.000  -0.069   0.000   0.000   0.000   0.000   0.017  -0.000
  0.000   0.000  -0.000   0.000   0.000   0.000  -1.950  -0.000   0.000   0.000   0.000   0.866  -0.000   0.000   0.000  -0.000
  0.002   0.000   0.000   0.018   0.000   0.000  -0.000  -1.944   0.000   0.000   0.000  -0.000   0.655   0.000   0.000  -0.000
  0.000   0.005   0.000   0.000  -0.008   0.000   0.000   0.000  -2.478   0.000  -0.070   0.000   0.000   1.079   0.000   0.070
  0.000   0.000   0.011  -0.000   0.000  -0.069   0.000   0.000   0.000  -1.776   0.000   0.000   0.000   0.000   0.636   0.000
  0.000   0.004   0.000   0.000  -0.039   0.000   0.000   0.000  -0.070   0.000  -2.272   0.000   0.000   0.070   0.000   0.864
  0.000   0.000  -0.000   0.000   0.000   0.000   0.866  -0.000   0.000   0.000   0.000  -0.207   0.000   0.000   0.000   0.000
 -0.002   0.000   0.000  -0.017   0.000   0.000  -0.000   0.655   0.000   0.000   0.000   0.000   0.048  -0.000   0.000   0.000
 -0.000  -0.005   0.000  -0.000  -0.007   0.000   0.000   0.000   1.079   0.000   0.070   0.000  -0.000  -0.344   0.000  -0.075
  0.000   0.000  -0.012   0.000   0.000   0.017   0.000   0.000   0.000   0.636   0.000   0.000   0.000   0.000   0.006   0.000
  0.000  -0.005   0.000   0.000   0.016  -0.000  -0.000  -0.000   0.070   0.000   0.864   0.000   0.000  -0.075   0.000  -0.127
  0.000  -0.002   0.000   0.000  -0.017   0.000   0.000   0.000  -0.006   0.000  -0.041   0.000   0.000  -0.010   0.000   0.035
 -0.000   0.000  -0.000   0.000  -0.000  -0.000   0.000   0.000  -0.008   0.000   0.005   0.000   0.000   0.002   0.000  -0.001


------------------------ aborting loop because EDIFF is reached ----------------------------------------





 total charge

# of ion       s       p       d       tot
------------------------------------------
    1        0.359   6.347   6.051  12.758
    2        0.356   6.341   6.060  12.756
    3        0.355   6.341   6.038  12.734
    4        0.362   6.350   6.038  12.749
    5        0.361   6.348   6.037  12.746
    6        0.356   6.344   6.038  12.738
    7        0.359   6.347   6.051  12.758
    8        0.356   6.341   6.060  12.756
    9        0.355   6.341   6.038  12.734
   10        0.786   0.731   8.040   9.558
   11        0.789   0.725   8.046   9.559
   12        0.774   0.740   8.042   9.556
--------------------------------------------------
tot          5.568  59.296  78.538 143.402



 magnetization (x)

# of ion       s       p       d       tot
------------------------------------------
    1       -0.012  -0.006  -2.387  -2.405
    2        0.001  -0.012   2.563   2.553
    3        0.009   0.002   2.494   2.505
    4       -0.017  -0.022  -2.431  -2.470
    5        0.014   0.022   2.453   2.489
    6        0.001  -0.014   2.691   2.678
    7       -0.012  -0.006  -2.387  -2.405
    8        0.001  -0.012   2.563   2.553
    9        0.009   0.002   2.494   2.505
   10        0.007   0.013  -0.065  -0.045
   11       -0.009  -0.017   0.091   0.065
   12       -0.039  -0.096   0.400   0.265
--------------------------------------------------
tot         -0.045  -0.146   8.480   8.289
 
    FORLOC:  cpu time      0.0009: real time      0.0009
    FORNL :  cpu time      0.7012: real time      0.7050
    STRESS:  cpu time      4.3206: real time      4.3558
    FORCOR:  cpu time      0.0204: real time      0.0206
    OFIELD:  cpu time      0.0002: real time      0.0002

  FORCE on cell =-STRESS in cart. coord.  units (eV):
  Direction    XX          YY          ZZ          XY          YZ          ZX
  --------------------------------------------------------------------------------------
  Alpha Z  1127.08695  1127.08695  1127.08695
  Ewald   -6088.46225 -6088.46225 -6109.48710     0.00000    -0.00000     0.00000
  Hartree  1856.62252  1856.62252  1837.39291    -0.00000    -0.00000    -0.00000
  E(xc)    -944.39494  -944.39494  -944.33836    -0.00000     0.00000     0.00000
  Local    1123.92592  1123.92592  1170.26586     0.00000     0.00000    -0.00000
  n-local  -208.53363  -222.46547  -215.54254    14.92916     0.13063     0.21569
  augment  1439.32841  1439.32841  1435.28674    -0.00000     0.00000     0.00000
  Kinetic  1712.64961  1695.70932  1702.13633     3.45147     0.05096     0.03769
  Fock        0.00000     0.00000     0.00000     0.00000     0.00000     0.00000
  -------------------------------------------------------------------------------------
  Total       2.78653     2.78653     2.80079     0.00000     0.00000     0.00000
  in kB      29.56634    29.56634    29.71766     0.00000     0.00000     0.00000
  external pressure =       29.62 kB  Pullay stress =        0.00 kB


 VOLUME and BASIS-vectors are now :
 -----------------------------------------------------------------------------
  energy-cutoff  :      520.00
  volume of cell :      151.00
      direct lattice vectors                 reciprocal lattice vectors
     3.677700163  0.000000000  0.000000000     0.271909062  0.000000000  0.000000000
     0.000000000  3.677700163  0.000000000     0.000000000  0.271909062  0.000000000
     0.000000000  0.000000000 11.164115204     0.000000000  0.000000000  0.089572705

  length of vectors
     3.677700163  3.677700163 11.164115204     0.271909062  0.271909062  0.089572705


 FORCES acting on ions:
    Electron-Ion                     Ewald-Force                    Non-Local-Force
 -----------------------------------------------------------------------------------------------
   -.103E-14 0.750E-12 -.471E+00   -.543E-13 -.414E-14 -.464E+00   -.358E-18 -.478E-18 0.943E+00
   -.135E-14 0.235E-12 -.264E+02   -.443E-13 -.170E-13 0.268E+02   -.824E-20 0.316E-18 -.399E+00
   0.894E-14 -.232E-12 0.110E+02   -.309E-13 0.400E-14 -.123E+02   0.150E-18 0.400E-18 0.123E+01
   0.111E-11 0.706E-11 0.675E+02   -.272E-13 0.529E-13 -.652E+02   -.131E-18 -.733E-19 -.236E+01
   0.110E-11 0.758E-11 0.300E+02   0.604E-13 0.361E-13 -.280E+02   0.347E-19 0.523E-18 -.198E+01
   0.110E-11 -.555E-11 -.497E+02   -.295E-13 0.438E-13 0.499E+02   -.230E-18 -.122E-18 -.157E+00
   0.110E-11 -.270E-13 -.471E+00   0.365E-14 -.155E-13 -.464E+00   0.435E-18 -.223E-18 0.943E+00
   0.111E-11 -.502E-12 -.264E+02   0.176E-13 -.353E-13 0.268E+02   -.115E-18 0.207E-19 -.399E+00
   0.111E-11 -.173E-12 0.110E+02   0.403E-13 -.167E-14 -.123E+02   -.561E-18 -.141E-17 0.123E+01
   -.328E-13 -.377E-13 0.189E+02   0.234E-13 -.706E-13 -.191E+02   0.603E-18 0.650E-19 0.274E+00
   -.325E-13 -.927E-13 -.122E+02   0.272E-14 0.597E-14 0.122E+02   0.336E-18 0.394E-18 0.614E-01
   -.301E-13 -.734E-13 -.223E+02   -.169E-13 -.486E-13 0.221E+02   -.289E-19 -.673E-19 0.213E+00
 -----------------------------------------------------------------------------------------------
   0.661E-11 0.899E-11 0.410E+00   -.551E-13 -.501E-13 0.135E-12   0.127E-18 -.657E-18 -.405E+00
 
 
 POSITION                                       TOTAL-FORCE (eV/Angst)
 -----------------------------------------------------------------------------------
      0.00000      1.83885      1.86008        -0.000000      0.000000      0.009790
      0.00000      1.83885      5.57260        -0.000000      0.000000     -0.004335
      0.00000      1.83885      9.31013        -0.000000      0.000000     -0.006219
      1.83885      1.83885      0.05230         0.000000     -0.000000      0.002868
      1.83885      1.83885      3.76182        -0.000000     -0.000000     -0.006015
      1.83885      1.83885      7.41556         0.000000     -0.000000      0.001082
      1.83885      0.00000      1.86008         0.000000      0.000000      0.009790
      1.83885      0.00000      5.57260        -0.000000      0.000000     -0.004335
      1.83885      0.00000      9.31013         0.000000      0.000000     -0.006219
      0.00000      0.00000     11.14772        -0.000000      0.000000      0.002275
      0.00000      0.00000      3.68130        -0.000000      0.000000     -0.002804
      0.00000      0.00000      7.44038        -0.000000      0.000000      0.004123
 -----------------------------------------------------------------------------------
    total drift:                                0.000000      0.000000      0.005080


--------------------------------------------------------------------------------------------------------



  FREE ENERGIE OF THE ION-ELECTRON SYSTEM (eV)
  ---------------------------------------------------
  free  energy   TOTEN  =       -93.33246100 eV

  energy  without entropy=      -93.34243314  energy(sigma->0) =      -93.33578505
 
 d Force = 0.1245209E-04[ 0.109E-04, 0.140E-04]  d Energy = 0.1711573E-04-0.466E-05
 d Force =-0.8425980E-02[-0.929E-02,-0.756E-02]  d Ewald  =-0.4849357E-02-0.358E-02


--------------------------------------------------------------------------------------------------------


    POTLOK:  cpu time      0.0295: real time      0.0297


--------------------------------------------------------------------------------------------------------




--------------------------------------------------------------------------------------------------------


  
 reached required accuracy - stopping structural energy minimisation
     LOOP+:  cpu time     55.5900: real time     56.4666
    4ORBIT:  cpu time      0.0000: real time      0.0000



 total charge

# of ion       s       p       d       tot
------------------------------------------
    1        0.359   6.347   6.051  12.758
    2        0.356   6.341   6.060  12.756
    3        0.355   6.341   6.038  12.734
    4        0.362   6.350   6.038  12.749
    5        0.361   6.348   6.037  12.746
    6        0.356   6.344   6.038  12.738
    7        0.359   6.347   6.051  12.758
    8        0.356   6.341   6.060  12.756
    9        0.355   6.341   6.038  12.734
   10        0.786   0.731   8.040   9.558
   11        0.789   0.725   8.046   9.559
   12        0.774   0.740   8.042   9.556
--------------------------------------------------
tot          5.568  59.296  78.538 143.402



 magnetization (x)

# of ion       s       p       d       tot
------------------------------------------
    1       -0.012  -0.006  -2.387  -2.405
    2        0.001  -0.012   2.563   2.553
    3        0.009   0.002   2.494   2.505
    4       -0.017  -0.022  -2.431  -2.470
    5        0.014   0.022   2.453   2.489
    6        0.001  -0.014   2.691   2.678
    7       -0.012  -0.006  -2.387  -2.405
    8        0.001  -0.012   2.563   2.553
    9        0.009   0.002   2.494   2.505
   10        0.007   0.013  -0.065  -0.045
   11       -0.009  -0.017   0.091   0.065
   12       -0.039  -0.096   0.400   0.265
--------------------------------------------------
tot         -0.045  -0.146   8.480   8.289
 

 total amount of memory used by VASP MPI-rank0   279107. kBytes
=======================================================================

   base      :      30000. kBytes
   nonl-proj :     100657. kBytes
   fftplans  :        888. kBytes
   grid      :       6813. kBytes
   one-center:        373. kBytes
   wavefun   :     140376. kBytes
 
  
  
 General timing and accounting informations for this job:
 ========================================================
  
                  Total CPU time used (sec):      464.714
                            User time (sec):      457.551
                          System time (sec):        7.163
                         Elapsed time (sec):      492.098
  
                   Maximum memory used (kb):     1312820.
                   Average memory used (kb):          N/A
  
                          Minor page faults:       226397
                          Major page faults:          160
                 Voluntary context switches:        17057
