 vasp.6.4.3 19Mar24 (build Mar 26 2024 14:05:37) complex                        
  
 executed on             LinuxIFC date 2024.12.16  23:47:17
 running  128 mpi-ranks, on    1 nodes
 distrk:  each k-point on   32 cores,    4 groups
 distr:  one band on NCORE=   1 cores,   32 groups


--------------------------------------------------------------------------------------------------------


 INCAR:
   ALGO = Normal
   EDIFF = 1e-06
   EDIFFG = -0.01
   ENCUT = 520
   GGA = Pe
   IBRION = -1
   ISIF = 4
   ISMEAR = -5
   ISPIN = 2
   KPAR = 4
   LCHARG = True
   LORBIT = 11
   LREAL = False
   LWAVE = False
   MAGMOM = 1*-2.405 1*2.553 1*2.505 1*-2.47 1*2.489 1*2.678 1*-2.405 1*2.553 1*2.505 1*-0.045 1*0.065 1*0.265
   NELM = 200
   NSW = 0
   PREC = Accurate
   SIGMA = 0.2

 POTCAR:    PAW_PBE Fe_pv 02Aug2007               
 POTCAR:    PAW_PBE Pt 04Feb2005                  
 -----------------------------------------------------------------------------
|                                                                             |
|           W    W    AA    RRRRR   N    N  II  N    N   GGGG   !!!           |
|           W    W   A  A   R    R  NN   N  II  NN   N  G    G  !!!           |
|           W    W  A    A  R    R  N N  N  II  N N  N  G       !!!           |
|           W WW W  AAAAAA  RRRRR   N  N N  II  N  N N  G  GGG   !            |
|           WW  WW  A    A  R   R   N   NN  II  N   NN  G    G                |
|           W    W  A    A  R    R  N    N  II  N    N   GGGG   !!!           |
|                                                                             |
|     For optimal performance we recommend to set                             |
|       NCORE = 2 up to number-of-cores-per-socket                            |
|     NCORE specifies how many cores store one orbital (NPAR=cpu/NCORE).      |
|     This setting can greatly improve the performance of VASP for DFT.       |
|     The default, NCORE=1 might be grossly inefficient on modern             |
|     multi-core architectures or massively parallel machines. Do your        |
|     own testing! More info at https://www.vasp.at/wiki/index.php/NCORE      |
|     Unfortunately you need to use the default for GW and RPA                |
|     calculations (for HF NCORE is supported but not extensively tested      |
|     yet).                                                                   |
|                                                                             |
 -----------------------------------------------------------------------------

 POTCAR:    PAW_PBE Fe_pv 02Aug2007               
   SHA256 =  5d22e414b1f82158bf2c7ecb8b97b28fd0923e48cadc1c3bf74d524558f5dd32 Fe_pv/POTCAR          
   COPYR  = (c) Copyright 02Aug2007 Georg Kresse                                                    
   COPYR  = This file is part of the software VASP. Any use, copying, and all other rights are regul
   COPYR  = If you do not have a valid VASP license, you may not use, copy or distribute this file. 
   VRHFIN =Fe:  3pd7s1                                                                              
   LEXCH  = PE                                                                                      
   EATOM  =  2457.4239 eV,  180.6156 Ry                                                             
                                                                                                    
   TITEL  = PAW_PBE Fe_pv 02Aug2007                                                                 
   LULTRA =        F    use ultrasoft PP ?                                                          
   IUNSCR =        1    unscreen: 0-lin 1-nonlin 2-no                                               
   RPACOR =    1.750    partial core radius                                                         
   POMASS =   55.847; ZVAL   =   14.000    mass and valenz                                          
   RCORE  =    2.200    outmost cutoff radius                                                       
   RWIGS  =    2.200; RWIGS  =    1.164    wigner-seitz radius (au A)                               
   ENMAX  =  293.238; ENMIN  =  219.928 eV                                                          
   ICORE  =        3    local potential                                                             
   LCOR   =        T    correct aug charges                                                         
   LPAW   =        T    paw PP                                                                      
   EAUG   =  578.342                                                                                
   DEXC   =    0.000                                                                                
   RMAX   =    2.249    core radius for proj-oper                                                   
   RAUG   =    1.300    factor for augmentation sphere                                              
   RDEP   =    2.296    radius for radial grids                                                     
   RDEPT  =    1.766    core radius for aug-charge                                                  
                                                                                                    
   Atomic configuration                                                                             
    8 entries                                                                                       
     n  l   j            E        occ.                                                              
     1  0  0.50     -6993.8440   2.0000                                                             
     2  0  0.50      -814.6047   2.0000                                                             
     2  1  1.50      -693.3689   6.0000                                                             
     3  0  0.50       -89.4732   2.0000                                                             
     3  1  1.50       -55.6373   6.0000                                                             
     3  2  2.50        -3.8151   7.0000                                                             
     4  0  0.50        -4.2551   1.0000                                                             
     4  3  2.50        -1.3606   0.0000                                                             
   Description                                                                                      
     l       E           TYP  RCUT    TYP  RCUT                                                     
     1    -55.6372668     23  2.000                                                                 
     1     -5.4423304     23  2.000                                                                 
     2     -3.8151096     23  2.200                                                                 
     2     -5.1756922     23  2.200                                                                 
     0     -4.2550951     23  2.200                                                                 
     0     27.2116520     23  2.200                                                                 
     3     -1.3605826     23  2.200                                                                 
  local pseudopotential read in
  partial core-charges read in
  partial kinetic energy density read in
  atomic valenz-charges read in
  non local Contribution for L=           1  read in
    real space projection operators read in
  non local Contribution for L=           1  read in
    real space projection operators read in
  non local Contribution for L=           2  read in
    real space projection operators read in
  non local Contribution for L=           2  read in
    real space projection operators read in
  non local Contribution for L=           0  read in
    real space projection operators read in
  non local Contribution for L=           0  read in
    real space projection operators read in
    PAW grid and wavefunctions read in
 
   number of l-projection  operators is LMAX  =           6
   number of lm-projection operators is LMMAX =          18
 
 POTCAR:    PAW_PBE Pt 04Feb2005                  
   SHA256 =  3ed90460adef76debcff1cfb73ee1349b515b1a3db03439735b44de3a8db7dc8 Pt/POTCAR             
   COPYR  = (c) Copyright 04Feb2005 Georg Kresse                                                    
   COPYR  = This file is part of the software VASP. Any use, copying, and all other rights are regul
   COPYR  = If you do not have a valid VASP license, you may not use, copy or distribute this file. 
   VRHFIN =Pt: s1d9                                                                                 
   LEXCH  = PE                                                                                      
   EATOM  =   729.1176 eV,   53.5886 Ry                                                             
                                                                                                    
   TITEL  = PAW_PBE Pt 04Feb2005                                                                    
   LULTRA =        F    use ultrasoft PP ?                                                          
   IUNSCR =        1    unscreen: 0-lin 1-nonlin 2-no                                               
   RPACOR =    2.330    partial core radius                                                         
   POMASS =  195.080; ZVAL   =   10.000    mass and valenz                                          
   RCORE  =    2.600    outmost cutoff radius                                                       
   RWIGS  =    2.750; RWIGS  =    1.455    wigner-seitz radius (au A)                               
   ENMAX  =  230.283; ENMIN  =  172.712 eV                                                          
   ICORE  =        3    local potential                                                             
   LCOR   =        T    correct aug charges                                                         
   LPAW   =        T    paw PP                                                                      
   EAUG   =  358.966                                                                                
   DEXC   =    0.000                                                                                
   RMAX   =    2.658    core radius for proj-oper                                                   
   RAUG   =    1.300    factor for augmentation sphere                                              
   RDEP   =    2.761    radius for radial grids                                                     
   RDEPT  =    2.203    core radius for aug-charge                                                  
                                                                                                    
   Atomic configuration                                                                             
   16 entries                                                                                       
     n  l   j            E        occ.                                                              
     1  0  0.50    -78401.1885   2.0000                                                             
     2  0  0.50    -13770.7750   2.0000                                                             
     2  1  1.50    -11931.0468   6.0000                                                             
     3  0  0.50     -3234.7234   2.0000                                                             
     3  1  1.50     -2699.2216   6.0000                                                             
     3  2  2.50     -2119.5714  10.0000                                                             
     4  0  0.50      -695.1528   2.0000                                                             
     4  1  1.50      -519.6034   6.0000                                                             
     4  2  2.50      -306.6786  10.0000                                                             
     4  3  3.50       -70.1041  14.0000                                                             
     5  0  0.50      -101.7747   2.0000                                                             
     5  1  1.50       -55.9873   6.0000                                                             
     5  2  2.50        -6.1423   9.0000                                                             
     6  0  0.50        -5.6573   1.0000                                                             
     6  1  1.50        -6.8029   0.0000                                                             
     5  3  2.50        -1.3606   0.0000                                                             
   Description                                                                                      
     l       E           TYP  RCUT    TYP  RCUT                                                     
     2     -6.1423404     23  2.500                                                                 
     2     -7.5029230     23  2.500                                                                 
     0     -5.6573207     23  2.500                                                                 
     0      0.7416693     23  2.500                                                                 
     1     -2.7211652     23  2.600                                                                 
     1     20.4087390     23  2.600                                                                 
     3     -1.3605826     23  2.500                                                                 
  local pseudopotential read in
  partial core-charges read in
  partial kinetic energy density read in
  atomic valenz-charges read in
  non local Contribution for L=           2  read in
    real space projection operators read in
  non local Contribution for L=           2  read in
    real space projection operators read in
  non local Contribution for L=           0  read in
    real space projection operators read in
  non local Contribution for L=           0  read in
    real space projection operators read in
  non local Contribution for L=           1  read in
    real space projection operators read in
  non local Contribution for L=           1  read in
    real space projection operators read in
    PAW grid and wavefunctions read in
 
   number of l-projection  operators is LMAX  =           6
   number of lm-projection operators is LMMAX =          18
 
  PAW_PBE Fe_pv 02Aug2007               :
 energy of atom  1       EATOM=-2457.4239
 kinetic energy error for atom=    0.0062 (will be added to EATOM!!)
  PAW_PBE Pt 04Feb2005                  :
 energy of atom  2       EATOM= -729.1176
 kinetic energy error for atom=    0.0032 (will be added to EATOM!!)
 
 
 POSCAR: Fe9 Pt3
  positions in direct lattice
  velocities in cartesian coordinates


 exchange-correlation table for PE
   RHO(1)=    0.500       N(1)  =     2000
   RHO(2)=  100.500       N(2)  =     4000
 


--------------------------------------------------------------------------------------------------------


 ion  position               nearest neighbor table
   1  0.000  0.500  0.167-   4 2.58   4 2.58  11 2.59  11 2.59   7 2.60   7 2.60   7 2.60   7 2.60
                            10 2.63  10 2.63   5 2.65   5 2.65
   2  0.000  0.500  0.499-   5 2.58   5 2.58   8 2.60   8 2.60   8 2.60   8 2.60   6 2.60   6 2.60
                            12 2.62  12 2.62  11 2.64  11 2.64
   3  0.000  0.500  0.834-  10 2.60  10 2.60   9 2.60   9 2.60   9 2.60   9 2.60  12 2.62  12 2.62
                             6 2.64   6 2.64   4 2.65   4 2.65
   4  0.500  0.500  0.005-   1 2.58   7 2.58   7 2.58   1 2.58  10 2.60  10 2.60  10 2.60  10 2.60
                             9 2.65   3 2.65   9 2.65   3 2.65
   5  0.500  0.500  0.337-   2 2.58   8 2.58   8 2.58   2 2.58  11 2.60  11 2.60  11 2.60  11 2.60
                             1 2.65   7 2.65   1 2.65   7 2.65
   6  0.500  0.500  0.664-  12 2.60  12 2.60  12 2.60  12 2.60   8 2.60   2 2.60   2 2.60   8 2.60
                             9 2.64   3 2.64   9 2.64   3 2.64
   7  0.500  0.000  0.167-   4 2.58   4 2.58  11 2.59  11 2.59   1 2.60   1 2.60   1 2.60   1 2.60
                            10 2.63  10 2.63   5 2.65   5 2.65
   8  0.500  0.000  0.499-   5 2.58   5 2.58   2 2.60   2 2.60   2 2.60   2 2.60   6 2.60   6 2.60
                            12 2.62  12 2.62  11 2.64  11 2.64
   9  0.500  0.000  0.834-  10 2.60  10 2.60   3 2.60   3 2.60   3 2.60   3 2.60  12 2.62  12 2.62
                             6 2.64   6 2.64   4 2.65   4 2.65
  10  0.000  0.000  0.999-   3 2.60   9 2.60   3 2.60   9 2.60   4 2.60   4 2.60   4 2.60   4 2.60
                             1 2.63   7 2.63   7 2.63   1 2.63
  11  0.000  0.000  0.330-   1 2.59   7 2.59   1 2.59   7 2.59   5 2.60   5 2.60   5 2.60   5 2.60
                             2 2.64   2 2.64   8 2.64   8 2.64
  12  0.000  0.000  0.666-   6 2.60   6 2.60   6 2.60   6 2.60   2 2.62   8 2.62   8 2.62   2 2.62
                             3 2.62   3 2.62   9 2.62   9 2.62
 
  LATTYP: Found a simple tetragonal cell.
 ALAT       =     3.6777001626
 C/A-ratio  =     3.0356240884
  
  Lattice vectors:
  
 A1 = (   3.6777001626,   0.0000000000,   0.0000000000)
 A2 = (   0.0000000000,   3.6777001626,   0.0000000000)
 A3 = (   0.0000000000,   0.0000000000,  11.1641152036)


Analysis of symmetry for initial positions (statically):
=====================================================================
 Subroutine PRICEL returns:
 Original cell was already a primitive cell.
 

 Routine SETGRP: Setting up the symmetry group for a 
 simple tetragonal supercell.


 Subroutine GETGRP returns: Found  8 space group operations
 (whereof  8 operations were pure point group operations)
 out of a pool of 16 trial point group operations.


The static configuration has the point symmetry C_4v.


Analysis of symmetry for dynamics (positions and initial velocities):
=====================================================================
 Subroutine PRICEL returns:
 Original cell was already a primitive cell.
 

 Routine SETGRP: Setting up the symmetry group for a 
 simple tetragonal supercell.


 Subroutine GETGRP returns: Found  8 space group operations
 (whereof  8 operations were pure point group operations)
 out of a pool of 16 trial point group operations.


The dynamic configuration has the point symmetry C_4v.


Analysis of structural, dynamic, and magnetic symmetry:
=====================================================================
 Subroutine PRICEL returns:
 Original cell was already a primitive cell.
 

 Routine SETGRP: Setting up the symmetry group for a 
 simple tetragonal supercell.


 Subroutine GETGRP returns: Found  8 space group operations
 (whereof  8 operations were pure point group operations)
 out of a pool of 16 trial point group operations.


The overall configuration has the point symmetry C_4v.


 Subroutine INISYM returns: Found  8 space group operations
 (whereof  8 operations are pure point group operations),
 and found     1 'primitive' translations


----------------------------------------------------------------------------------------

                                     Primitive cell                                     

  volume of cell :     151.0000

  direct lattice vectors                    reciprocal lattice vectors
     3.677700163  0.000000000  0.000000000     0.271909062  0.000000000  0.000000000
     0.000000000  3.677700163  0.000000000     0.000000000  0.271909062  0.000000000
     0.000000000  0.000000000 11.164115204     0.000000000  0.000000000  0.089572705

  length of vectors
     3.677700163  3.677700163 11.164115204     0.271909062  0.271909062  0.089572705

  position of ions in fractional coordinates (direct lattice)
     0.000000000  0.500000000  0.166612086
     0.000000000  0.500000000  0.499153246
     0.000000000  0.500000000  0.833933299
     0.500000000  0.500000000  0.004684237
     0.500000000  0.500000000  0.336956588
     0.500000000  0.500000000  0.664231667
     0.500000000  0.000000000  0.166612086
     0.500000000  0.000000000  0.499153246
     0.500000000  0.000000000  0.833933299
     0.000000000  0.000000000  0.998531427
     0.000000000  0.000000000  0.329744287
     0.000000000  0.000000000  0.666454533

  ion indices of the primitive-cell ions
   primitive index   ion index
                 1           1
                 2           2
                 3           3
                 4           4
                 5           5
                 6           6
                 7           7
                 8           8
                 9           9
                10          10
                11          11
                12          12

----------------------------------------------------------------------------------------

 
 
 KPOINTS: pymatgen with grid density = 8800 / numb

Automatic generation of k-mesh.
 Grid dimensions read from file:
 generate k-points for:   13   13    4

 Generating k-lattice:

  Cartesian coordinates                     Fractional coordinates (reciprocal lattice)
     0.020916082  0.000000000  0.000000000     0.076923077  0.000000000  0.000000000
     0.000000000  0.020916082  0.000000000     0.000000000  0.076923077  0.000000000
     0.000000000  0.000000000  0.022393176     0.000000000  0.000000000  0.250000000

  Length of vectors
     0.020916082  0.020916082  0.022393176

  Shift w.r.t. Gamma in fractional coordinates (k-lattice)
     0.000000000  0.000000000  0.000000000

 TETIRR: Found   1010 inequivalent tetrahedra from     4056
 
 Subroutine IBZKPT returns following result:
 ===========================================
 
 Found     84 irreducible k-points:
 
 Following reciprocal coordinates:
            Coordinates               Weight
  0.000000  0.000000  0.000000      1.000000
  0.076923  0.000000  0.000000      4.000000
  0.153846  0.000000  0.000000      4.000000
  0.230769  0.000000  0.000000      4.000000
  0.307692  0.000000  0.000000      4.000000
  0.384615  0.000000  0.000000      4.000000
  0.461538  0.000000  0.000000      4.000000
  0.076923  0.076923  0.000000      4.000000
  0.153846  0.076923  0.000000      8.000000
  0.230769  0.076923  0.000000      8.000000
  0.307692  0.076923  0.000000      8.000000
  0.384615  0.076923  0.000000      8.000000
  0.461538  0.076923  0.000000      8.000000
  0.153846  0.153846  0.000000      4.000000
  0.230769  0.153846  0.000000      8.000000
  0.307692  0.153846  0.000000      8.000000
  0.384615  0.153846  0.000000      8.000000
  0.461538  0.153846  0.000000      8.000000
  0.230769  0.230769  0.000000      4.000000
  0.307692  0.230769  0.000000      8.000000
  0.384615  0.230769  0.000000      8.000000
  0.461538  0.230769  0.000000      8.000000
  0.307692  0.307692  0.000000      4.000000
  0.384615  0.307692  0.000000      8.000000
  0.461538  0.307692  0.000000      8.000000
  0.384615  0.384615  0.000000      4.000000
  0.461538  0.384615  0.000000      8.000000
  0.461538  0.461538  0.000000      4.000000
  0.000000  0.000000  0.250000      2.000000
  0.076923  0.000000  0.250000      8.000000
  0.153846  0.000000  0.250000      8.000000
  0.230769  0.000000  0.250000      8.000000
  0.307692  0.000000  0.250000      8.000000
  0.384615  0.000000  0.250000      8.000000
  0.461538  0.000000  0.250000      8.000000
  0.076923  0.076923  0.250000      8.000000
  0.153846  0.076923  0.250000     16.000000
  0.230769  0.076923  0.250000     16.000000
  0.307692  0.076923  0.250000     16.000000
  0.384615  0.076923  0.250000     16.000000
  0.461538  0.076923  0.250000     16.000000
  0.153846  0.153846  0.250000      8.000000
  0.230769  0.153846  0.250000     16.000000
  0.307692  0.153846  0.250000     16.000000
  0.384615  0.153846  0.250000     16.000000
  0.461538  0.153846  0.250000     16.000000
  0.230769  0.230769  0.250000      8.000000
  0.307692  0.230769  0.250000     16.000000
  0.384615  0.230769  0.250000     16.000000
  0.461538  0.230769  0.250000     16.000000
  0.307692  0.307692  0.250000      8.000000
  0.384615  0.307692  0.250000     16.000000
  0.461538  0.307692  0.250000     16.000000
  0.384615  0.384615  0.250000      8.000000
  0.461538  0.384615  0.250000     16.000000
  0.461538  0.461538  0.250000      8.000000
  0.000000  0.000000  0.500000      1.000000
  0.076923  0.000000  0.500000      4.000000
  0.153846  0.000000  0.500000      4.000000
  0.230769  0.000000  0.500000      4.000000
  0.307692  0.000000  0.500000      4.000000
  0.384615  0.000000  0.500000      4.000000
  0.461538  0.000000  0.500000      4.000000
  0.076923  0.076923  0.500000      4.000000
  0.153846  0.076923  0.500000      8.000000
  0.230769  0.076923  0.500000      8.000000
  0.307692  0.076923  0.500000      8.000000
  0.384615  0.076923  0.500000      8.000000
  0.461538  0.076923  0.500000      8.000000
  0.153846  0.153846  0.500000      4.000000
  0.230769  0.153846  0.500000      8.000000
  0.307692  0.153846  0.500000      8.000000
  0.384615  0.153846  0.500000      8.000000
  0.461538  0.153846  0.500000      8.000000
  0.230769  0.230769  0.500000      4.000000
  0.307692  0.230769  0.500000      8.000000
  0.384615  0.230769  0.500000      8.000000
  0.461538  0.230769  0.500000      8.000000
  0.307692  0.307692  0.500000      4.000000
  0.384615  0.307692  0.500000      8.000000
  0.461538  0.307692  0.500000      8.000000
  0.384615  0.384615  0.500000      4.000000
  0.461538  0.384615  0.500000      8.000000
  0.461538  0.461538  0.500000      4.000000
 
 Following cartesian coordinates:
            Coordinates               Weight
  0.000000  0.000000  0.000000      1.000000
  0.020916  0.000000  0.000000      4.000000
  0.041832  0.000000  0.000000      4.000000
  0.062748  0.000000  0.000000      4.000000
  0.083664  0.000000  0.000000      4.000000
  0.104580  0.000000  0.000000      4.000000
  0.125496  0.000000  0.000000      4.000000
  0.020916  0.020916  0.000000      4.000000
  0.041832  0.020916  0.000000      8.000000
  0.062748  0.020916  0.000000      8.000000
  0.083664  0.020916  0.000000      8.000000
  0.104580  0.020916  0.000000      8.000000
  0.125496  0.020916  0.000000      8.000000
  0.041832  0.041832  0.000000      4.000000
  0.062748  0.041832  0.000000      8.000000
  0.083664  0.041832  0.000000      8.000000
  0.104580  0.041832  0.000000      8.000000
  0.125496  0.041832  0.000000      8.000000
  0.062748  0.062748  0.000000      4.000000
  0.083664  0.062748  0.000000      8.000000
  0.104580  0.062748  0.000000      8.000000
  0.125496  0.062748  0.000000      8.000000
  0.083664  0.083664  0.000000      4.000000
  0.104580  0.083664  0.000000      8.000000
  0.125496  0.083664  0.000000      8.000000
  0.104580  0.104580  0.000000      4.000000
  0.125496  0.104580  0.000000      8.000000
  0.125496  0.125496  0.000000      4.000000
  0.000000  0.000000  0.022393      2.000000
  0.020916  0.000000  0.022393      8.000000
  0.041832  0.000000  0.022393      8.000000
  0.062748  0.000000  0.022393      8.000000
  0.083664  0.000000  0.022393      8.000000
  0.104580  0.000000  0.022393      8.000000
  0.125496  0.000000  0.022393      8.000000
  0.020916  0.020916  0.022393      8.000000
  0.041832  0.020916  0.022393     16.000000
  0.062748  0.020916  0.022393     16.000000
  0.083664  0.020916  0.022393     16.000000
  0.104580  0.020916  0.022393     16.000000
  0.125496  0.020916  0.022393     16.000000
  0.041832  0.041832  0.022393      8.000000
  0.062748  0.041832  0.022393     16.000000
  0.083664  0.041832  0.022393     16.000000
  0.104580  0.041832  0.022393     16.000000
  0.125496  0.041832  0.022393     16.000000
  0.062748  0.062748  0.022393      8.000000
  0.083664  0.062748  0.022393     16.000000
  0.104580  0.062748  0.022393     16.000000
  0.125496  0.062748  0.022393     16.000000
  0.083664  0.083664  0.022393      8.000000
  0.104580  0.083664  0.022393     16.000000
  0.125496  0.083664  0.022393     16.000000
  0.104580  0.104580  0.022393      8.000000
  0.125496  0.104580  0.022393     16.000000
  0.125496  0.125496  0.022393      8.000000
  0.000000  0.000000  0.044786      1.000000
  0.020916  0.000000  0.044786      4.000000
  0.041832  0.000000  0.044786      4.000000
  0.062748  0.000000  0.044786      4.000000
  0.083664  0.000000  0.044786      4.000000
  0.104580  0.000000  0.044786      4.000000
  0.125496  0.000000  0.044786      4.000000
  0.020916  0.020916  0.044786      4.000000
  0.041832  0.020916  0.044786      8.000000
  0.062748  0.020916  0.044786      8.000000
  0.083664  0.020916  0.044786      8.000000
  0.104580  0.020916  0.044786      8.000000
  0.125496  0.020916  0.044786      8.000000
  0.041832  0.041832  0.044786      4.000000
  0.062748  0.041832  0.044786      8.000000
  0.083664  0.041832  0.044786      8.000000
  0.104580  0.041832  0.044786      8.000000
  0.125496  0.041832  0.044786      8.000000
  0.062748  0.062748  0.044786      4.000000
  0.083664  0.062748  0.044786      8.000000
  0.104580  0.062748  0.044786      8.000000
  0.125496  0.062748  0.044786      8.000000
  0.083664  0.083664  0.044786      4.000000
  0.104580  0.083664  0.044786      8.000000
  0.125496  0.083664  0.044786      8.000000
  0.104580  0.104580  0.044786      4.000000
  0.125496  0.104580  0.044786      8.000000
  0.125496  0.125496  0.044786      4.000000
 


--------------------------------------------------------------------------------------------------------




 Dimension of arrays:
   k-points           NKPTS =     84   k-points in BZ     NKDIM =     84   number of bands    NBANDS=    128
   number of dos      NEDOS =    301   number of ions     NIONS =     12
   non local maximal  LDIM  =      6   non local SUM 2l+1 LMDIM =     18
   total plane-waves  NPLWV =  65856
   max r-space proj   IRMAX =      1   max aug-charges    IRDMAX=  26612
   dimension x,y,z NGX =    28 NGY =   28 NGZ =   84
   dimension x,y,z NGXF=    56 NGYF=   56 NGZF=  168
   support grid    NGXF=    56 NGYF=   56 NGZF=  168
   ions per type =               9   3
   NGX,Y,Z   is equivalent  to a cutoff of  12.66, 12.66, 12.51 a.u.
   NGXF,Y,Z  is equivalent  to a cutoff of  25.31, 25.31, 25.02 a.u.

 SYSTEM =  unknown system                          
 POSCAR =  Fe9 Pt3                                 

 Startparameter for this run:
   NWRITE =      2    write-flag & timer
   PREC   = accura    normal or accurate (medium, high low for compatibility)
   ISTART =      0    job   : 0-new  1-cont  2-samecut
   ICHARG =      2    charge: 1-file 2-atom 10-const
   ISPIN  =      2    spin polarized calculation?
   LNONCOLLINEAR =      F non collinear calculations
   LSORBIT =      F    spin-orbit coupling
   INIWAV =      1    electr: 0-lowe 1-rand  2-diag
   LASPH  =      F    aspherical Exc in radial PAW
 Electronic Relaxation 1
   ENCUT  =  520.0 eV  38.22 Ry    6.18 a.u.   6.84  6.84 20.76*2*pi/ulx,y,z
   ENINI  =  520.0     initial cutoff
   ENAUG  =  578.3 eV  augmentation charge cutoff
   NELM   =    200;   NELMIN=  2; NELMDL=  0     # of ELM steps 
   EDIFF  = 0.1E-05   stopping-criterion for ELM
   LREAL  =      F    real-space projection
   NLSPLINE    = F    spline interpolate recip. space projectors
   LCOMPAT=      F    compatible to vasp.4.4
   GGA_COMPAT  = T    GGA compatible to vasp.4.4-vasp.4.6
   LMAXPAW     = -100 max onsite density
   LMAXMIX     =    2 max onsite mixed and CHGCAR
   VOSKOWN=      0    Vosko Wilk Nusair interpolation
   ROPT   =    0.00000   0.00000
 Ionic relaxation
   EDIFFG = -.1E-01   stopping-criterion for IOM
   NSW    =      0    number of steps for IOM
   NBLOCK =      1;   KBLOCK =      1    inner block; outer block 
   IBRION =     -1    ionic relax: 0-MD 1-quasi-New 2-CG
   NFREE  =      0    steps in history (QN), initial steepest desc. (CG)
   ISIF   =      4    stress and relaxation
   IWAVPR =     10    prediction:  0-non 1-charg 2-wave 3-comb
   ISYM   =      2    0-nonsym 1-usesym 2-fastsym
   LCORR  =      T    Harris-Foulkes like correction to forces

   POTIM  = 0.5000    time-step for ionic-motion
   TEIN   =    0.0    initial temperature
   TEBEG  =    0.0;   TEEND  =   0.0 temperature during run
   SMASS  =  -3.00    Nose mass-parameter (am)
   estimated Nose-frequenzy (Omega)   =  0.10E-29 period in steps = 0.13E+47 mass=  -0.309E-27a.u.
   SCALEE = 1.0000    scale energy and forces
   NPACO  =    256;   APACO  = 10.0  distance and # of slots for P.C.
   PSTRESS=    0.0 pullay stress

  Mass of Ions in am
   POMASS =  55.85195.08
  Ionic Valenz
   ZVAL   =  14.00 10.00
  Atomic Wigner-Seitz radii
   RWIGS  =  -1.00 -1.00
  virtual crystal weights 
   VCA    =   1.00  1.00
   NELECT =     156.0000    total number of electrons
   NUPDOWN=      -1.0000    fix difference up-down

 DOS related values:
   EMIN   =  10.00;   EMAX   =-10.00  energy-range for DOS
   EFERMI =   0.00;   METHOD = LEGACY      
   ISMEAR =    -5;   SIGMA  =   0.20  broadening in eV -4-tet -1-fermi 0-gaus

 Electronic relaxation 2 (details)
   IALGO  =     38    algorithm
   LDIAG  =      T    sub-space diagonalisation (order eigenvalues)
   LSUBROT=      F    optimize rotation matrix (better conditioning)
   TURBO    =      0    0=normal 1=particle mesh
   IRESTART =      0    0=no restart 2=restart with 2 vectors
   NREBOOT  =      0    no. of reboots
   NMIN     =      0    reboot dimension
   EREF     =   0.00    reference energy to select bands
   IMIX   =      4    mixing-type and parameters
     AMIX     =   0.40;   BMIX     =  1.00
     AMIX_MAG =   1.60;   BMIX_MAG =  1.00
     AMIN     =   0.10
     WC   =   100.;   INIMIX=   1;  MIXPRE=   1;  MAXMIX= -45

 Intra band minimization:
   WEIMIN = 0.0000     energy-eigenvalue tresh-hold
   EBREAK =  0.20E-08  absolut break condition
   DEPER  =   0.30     relativ break condition  

   TIME   =   0.40     timestep for ELM

  volume/ion in A,a.u.               =      12.58        84.92
  Fermi-wavevector in a.u.,A,eV,Ry     =   1.654972  3.127444 37.265448  2.738933
  Thomas-Fermi vector in A             =   2.743148
 
 Write flags
   LWAVE        =      F    write WAVECAR
   LDOWNSAMPLE  =      F    k-point downsampling of WAVECAR
   LCHARG       =      T    write CHGCAR
   LVTOT        =      F    write LOCPOT, total local potential
   LVHAR        =      F    write LOCPOT, Hartree potential only
   WRT_POTENTIAL= false  ! write potential to hdf5 file
   LELF         =      F    write electronic localiz. function (ELF)
   LORBIT       =     11    0 simple, 1 ext, 2 COOP (PROOUT), +10 PAW based schemes


 Dipole corrections
   LMONO      =      F    monopole corrections only (constant potential shift)
   LDIPOL     =      F    correct potential (dipole corrections)
   IDIPOL     =      0    1-x, 2-y, 3-z, 4-all directions 
   EPSILON    =  1.0000000 bulk dielectric constant
   LVACPOTAV  =      F  vacuum potentials using an averaging scheme for the charge density
   VACPOTFLAT =  0.1000000 required flatness to determine vacuum potential
 Exchange correlation treatment:
   GGA     = PE    functional components
   XC_C    = 1    coefficients multiplying the functional components
   LIBXC   =     F    Libxc                    
   VOSKOWN =     0    Vosko Wilk Nusair interpolation
   LHFCALC =     F    Hartree Fock is set to
   LHFONE  =     F    Hartree Fock one center treatment
   AEXX    =    0.0000 exact exchange contribution

 Parameters of functionals:
   PE:
     No parameter
 
 Van der Waals corrections
   IVDW    =     0    specifies the selected vdW correction

 Linear response parameters
   LEPSILON=     F    determine dielectric tensor
   LRPA    =     F    only Hartree local field effects (RPA)
   LNABLA  =     F    use nabla operator in PAW spheres
   LVEL    =     F    velocity operator in full k-point grid
   CSHIFT  =0.1000    complex shift for real part using Kramers Kronig
   OMEGAMAX=  -1.0    maximum frequency
   DEG_THRESHOLD= 0.2000000E-02 threshold for treating states as degnerate
   RTIME   =   -0.100 relaxation time in fs
  (WPLASMAI=    0.000 imaginary part of plasma frequency in eV, 0.658/RTIME)
   DFIELD  = 0.0000000 0.0000000 0.0000000 field for delta impulse in time
 
  Optional k-point grid parameters
   LKPOINTS_OPT  =     F    use optional k-point grid
   KPOINTS_OPT_MODE=     1    mode for optional k-point grid
 
 Orbital magnetization related:
   ORBITALMAG=     F  switch on orbital magnetization
   LCHIMAG   =     F  perturbation theory with respect to B field
   DQ        =  0.001000  dq finite difference perturbation B field
   LLRAUG    =     F  two centre corrections for induced B field
   LBONE     =     F  B-component reconstruction in AE one-centre
   LVGVCALC  =     T  calculate vGv susceptibility
   LVGVAPPL  =     F  apply vGv susceptibility instead of pGv for G=0

 Random number generation:
   RANDOM_GENERATOR = DEFAULT
   PCG_SEED         = not used


--------------------------------------------------------------------------------------------------------


 Static calculation
 charge density and potential will be updated during run
 spin polarized calculation
 Variant of blocked Davidson
 Davidson routine will perform the subspace rotation
 perform sub-space diagonalisation
    after iterative eigenvector-optimisation
 modified Broyden-mixing scheme, WC =      100.0
 initial mixing is a Kerker type mixing with AMIX =  0.4000 and BMIX =      1.0000
 Hartree-type preconditioning will be used
 using additional bands           50
 reciprocal scheme for non local part
 use partial core corrections
 calculate Harris-corrections to forces 
   (improved forces if not selfconsistent)
 use gradient corrections 
 use of overlap-Matrix (Vanderbilt PP)
 Fermi weights with tetrahedron method with Bloechl corrections


--------------------------------------------------------------------------------------------------------


  energy-cutoff  :      520.00
  volume of cell :      151.00
      direct lattice vectors                 reciprocal lattice vectors
     3.677700163  0.000000000  0.000000000     0.271909062  0.000000000  0.000000000
     0.000000000  3.677700163  0.000000000     0.000000000  0.271909062  0.000000000
     0.000000000  0.000000000 11.164115204     0.000000000  0.000000000  0.089572705

  length of vectors
     3.677700163  3.677700163 11.164115204     0.271909062  0.271909062  0.089572705


 
 k-points in units of 2pi/SCALE and weight: pymatgen with grid density = 8800 / numb
   0.00000000  0.00000000  0.00000000       0.001
   0.02091608  0.00000000  0.00000000       0.006
   0.04183216  0.00000000  0.00000000       0.006
   0.06274824  0.00000000  0.00000000       0.006
   0.08366433  0.00000000  0.00000000       0.006
   0.10458041  0.00000000  0.00000000       0.006
   0.12549649  0.00000000  0.00000000       0.006
   0.02091608  0.02091608  0.00000000       0.006
   0.04183216  0.02091608  0.00000000       0.012
   0.06274824  0.02091608  0.00000000       0.012
   0.08366433  0.02091608  0.00000000       0.012
   0.10458041  0.02091608  0.00000000       0.012
   0.12549649  0.02091608  0.00000000       0.012
   0.04183216  0.04183216  0.00000000       0.006
   0.06274824  0.04183216  0.00000000       0.012
   0.08366433  0.04183216  0.00000000       0.012
   0.10458041  0.04183216  0.00000000       0.012
   0.12549649  0.04183216  0.00000000       0.012
   0.06274824  0.06274824  0.00000000       0.006
   0.08366433  0.06274824  0.00000000       0.012
   0.10458041  0.06274824  0.00000000       0.012
   0.12549649  0.06274824  0.00000000       0.012
   0.08366433  0.08366433  0.00000000       0.006
   0.10458041  0.08366433  0.00000000       0.012
   0.12549649  0.08366433  0.00000000       0.012
   0.10458041  0.10458041  0.00000000       0.006
   0.12549649  0.10458041  0.00000000       0.012
   0.12549649  0.12549649  0.00000000       0.006
   0.00000000  0.00000000  0.02239318       0.003
   0.02091608  0.00000000  0.02239318       0.012
   0.04183216  0.00000000  0.02239318       0.012
   0.06274824  0.00000000  0.02239318       0.012
   0.08366433  0.00000000  0.02239318       0.012
   0.10458041  0.00000000  0.02239318       0.012
   0.12549649  0.00000000  0.02239318       0.012
   0.02091608  0.02091608  0.02239318       0.012
   0.04183216  0.02091608  0.02239318       0.024
   0.06274824  0.02091608  0.02239318       0.024
   0.08366433  0.02091608  0.02239318       0.024
   0.10458041  0.02091608  0.02239318       0.024
   0.12549649  0.02091608  0.02239318       0.024
   0.04183216  0.04183216  0.02239318       0.012
   0.06274824  0.04183216  0.02239318       0.024
   0.08366433  0.04183216  0.02239318       0.024
   0.10458041  0.04183216  0.02239318       0.024
   0.12549649  0.04183216  0.02239318       0.024
   0.06274824  0.06274824  0.02239318       0.012
   0.08366433  0.06274824  0.02239318       0.024
   0.10458041  0.06274824  0.02239318       0.024
   0.12549649  0.06274824  0.02239318       0.024
   0.08366433  0.08366433  0.02239318       0.012
   0.10458041  0.08366433  0.02239318       0.024
   0.12549649  0.08366433  0.02239318       0.024
   0.10458041  0.10458041  0.02239318       0.012
   0.12549649  0.10458041  0.02239318       0.024
   0.12549649  0.12549649  0.02239318       0.012
   0.00000000  0.00000000  0.04478635       0.001
   0.02091608  0.00000000  0.04478635       0.006
   0.04183216  0.00000000  0.04478635       0.006
   0.06274824  0.00000000  0.04478635       0.006
   0.08366433  0.00000000  0.04478635       0.006
   0.10458041  0.00000000  0.04478635       0.006
   0.12549649  0.00000000  0.04478635       0.006
   0.02091608  0.02091608  0.04478635       0.006
   0.04183216  0.02091608  0.04478635       0.012
   0.06274824  0.02091608  0.04478635       0.012
   0.08366433  0.02091608  0.04478635       0.012
   0.10458041  0.02091608  0.04478635       0.012
   0.12549649  0.02091608  0.04478635       0.012
   0.04183216  0.04183216  0.04478635       0.006
   0.06274824  0.04183216  0.04478635       0.012
   0.08366433  0.04183216  0.04478635       0.012
   0.10458041  0.04183216  0.04478635       0.012
   0.12549649  0.04183216  0.04478635       0.012
   0.06274824  0.06274824  0.04478635       0.006
   0.08366433  0.06274824  0.04478635       0.012
   0.10458041  0.06274824  0.04478635       0.012
   0.12549649  0.06274824  0.04478635       0.012
   0.08366433  0.08366433  0.04478635       0.006
   0.10458041  0.08366433  0.04478635       0.012
   0.12549649  0.08366433  0.04478635       0.012
   0.10458041  0.10458041  0.04478635       0.006
   0.12549649  0.10458041  0.04478635       0.012
   0.12549649  0.12549649  0.04478635       0.006
 
 k-points in reciprocal lattice and weights: pymatgen with grid density = 8800 / numb
   0.00000000  0.00000000  0.00000000       0.001
   0.07692308  0.00000000  0.00000000       0.006
   0.15384615  0.00000000  0.00000000       0.006
   0.23076923  0.00000000  0.00000000       0.006
   0.30769231  0.00000000  0.00000000       0.006
   0.38461538  0.00000000  0.00000000       0.006
   0.46153846  0.00000000  0.00000000       0.006
   0.07692308  0.07692308  0.00000000       0.006
   0.15384615  0.07692308  0.00000000       0.012
   0.23076923  0.07692308  0.00000000       0.012
   0.30769231  0.07692308  0.00000000       0.012
   0.38461538  0.07692308  0.00000000       0.012
   0.46153846  0.07692308  0.00000000       0.012
   0.15384615  0.15384615  0.00000000       0.006
   0.23076923  0.15384615  0.00000000       0.012
   0.30769231  0.15384615  0.00000000       0.012
   0.38461538  0.15384615  0.00000000       0.012
   0.46153846  0.15384615  0.00000000       0.012
   0.23076923  0.23076923  0.00000000       0.006
   0.30769231  0.23076923  0.00000000       0.012
   0.38461538  0.23076923  0.00000000       0.012
   0.46153846  0.23076923  0.00000000       0.012
   0.30769231  0.30769231  0.00000000       0.006
   0.38461538  0.30769231  0.00000000       0.012
   0.46153846  0.30769231  0.00000000       0.012
   0.38461538  0.38461538  0.00000000       0.006
   0.46153846  0.38461538  0.00000000       0.012
   0.46153846  0.46153846  0.00000000       0.006
   0.00000000  0.00000000  0.25000000       0.003
   0.07692308  0.00000000  0.25000000       0.012
   0.15384615  0.00000000  0.25000000       0.012
   0.23076923  0.00000000  0.25000000       0.012
   0.30769231  0.00000000  0.25000000       0.012
   0.38461538  0.00000000  0.25000000       0.012
   0.46153846  0.00000000  0.25000000       0.012
   0.07692308  0.07692308  0.25000000       0.012
   0.15384615  0.07692308  0.25000000       0.024
   0.23076923  0.07692308  0.25000000       0.024
   0.30769231  0.07692308  0.25000000       0.024
   0.38461538  0.07692308  0.25000000       0.024
   0.46153846  0.07692308  0.25000000       0.024
   0.15384615  0.15384615  0.25000000       0.012
   0.23076923  0.15384615  0.25000000       0.024
   0.30769231  0.15384615  0.25000000       0.024
   0.38461538  0.15384615  0.25000000       0.024
   0.46153846  0.15384615  0.25000000       0.024
   0.23076923  0.23076923  0.25000000       0.012
   0.30769231  0.23076923  0.25000000       0.024
   0.38461538  0.23076923  0.25000000       0.024
   0.46153846  0.23076923  0.25000000       0.024
   0.30769231  0.30769231  0.25000000       0.012
   0.38461538  0.30769231  0.25000000       0.024
   0.46153846  0.30769231  0.25000000       0.024
   0.38461538  0.38461538  0.25000000       0.012
   0.46153846  0.38461538  0.25000000       0.024
   0.46153846  0.46153846  0.25000000       0.012
   0.00000000  0.00000000  0.50000000       0.001
   0.07692308  0.00000000  0.50000000       0.006
   0.15384615  0.00000000  0.50000000       0.006
   0.23076923  0.00000000  0.50000000       0.006
   0.30769231  0.00000000  0.50000000       0.006
   0.38461538  0.00000000  0.50000000       0.006
   0.46153846  0.00000000  0.50000000       0.006
   0.07692308  0.07692308  0.50000000       0.006
   0.15384615  0.07692308  0.50000000       0.012
   0.23076923  0.07692308  0.50000000       0.012
   0.30769231  0.07692308  0.50000000       0.012
   0.38461538  0.07692308  0.50000000       0.012
   0.46153846  0.07692308  0.50000000       0.012
   0.15384615  0.15384615  0.50000000       0.006
   0.23076923  0.15384615  0.50000000       0.012
   0.30769231  0.15384615  0.50000000       0.012
   0.38461538  0.15384615  0.50000000       0.012
   0.46153846  0.15384615  0.50000000       0.012
   0.23076923  0.23076923  0.50000000       0.006
   0.30769231  0.23076923  0.50000000       0.012
   0.38461538  0.23076923  0.50000000       0.012
   0.46153846  0.23076923  0.50000000       0.012
   0.30769231  0.30769231  0.50000000       0.006
   0.38461538  0.30769231  0.50000000       0.012
   0.46153846  0.30769231  0.50000000       0.012
   0.38461538  0.38461538  0.50000000       0.006
   0.46153846  0.38461538  0.50000000       0.012
   0.46153846  0.46153846  0.50000000       0.006
 
 position of ions in fractional coordinates (direct lattice) 
   0.00000000  0.50000000  0.16661209
   0.00000000  0.50000000  0.49915325
   0.00000000  0.50000000  0.83393330
   0.50000000  0.50000000  0.00468424
   0.50000000  0.50000000  0.33695659
   0.50000000  0.50000000  0.66423167
   0.50000000  0.00000000  0.16661209
   0.50000000  0.00000000  0.49915325
   0.50000000  0.00000000  0.83393330
   0.00000000  0.00000000  0.99853143
   0.00000000  0.00000000  0.32974429
   0.00000000  0.00000000  0.66645453
 
 position of ions in cartesian coordinates  (Angst):
   0.00000000  1.83885008  1.86007652
   0.00000000  1.83885008  5.57260434
   0.00000000  1.83885008  9.31012742
   1.83885008  1.83885008  0.05229536
   1.83885008  1.83885008  3.76182217
   1.83885008  1.83885008  7.41555885
   1.83885008  0.00000000  1.86007652
   1.83885008  0.00000000  5.57260434
   1.83885008  0.00000000  9.31012742
   0.00000000  0.00000000 11.14771988
   0.00000000  0.00000000  3.68130321
   0.00000000  0.00000000  7.44037519
 


--------------------------------------------------------------------------------------------------------


 k-point     1 :   0.0000 0.0000 0.0000  plane waves:    4049
 k-point     2 :   0.0769 0.0000 0.0000  plane waves:    4051
 k-point     3 :   0.1538 0.0000 0.0000  plane waves:    4057
 k-point     4 :   0.2308 0.0000 0.0000  plane waves:    4048
 k-point     5 :   0.3077 0.0000 0.0000  plane waves:    4056
 k-point     6 :   0.3846 0.0000 0.0000  plane waves:    4070
 k-point     7 :   0.4615 0.0000 0.0000  plane waves:    4074
 k-point     8 :   0.0769 0.0769 0.0000  plane waves:    4061
 k-point     9 :   0.1538 0.0769 0.0000  plane waves:    4041
 k-point    10 :   0.2308 0.0769 0.0000  plane waves:    4052
 k-point    11 :   0.3077 0.0769 0.0000  plane waves:    4070
 k-point    12 :   0.3846 0.0769 0.0000  plane waves:    4072
 k-point    13 :   0.4615 0.0769 0.0000  plane waves:    4062
 k-point    14 :   0.1538 0.1538 0.0000  plane waves:    4059
 k-point    15 :   0.2308 0.1538 0.0000  plane waves:    4065
 k-point    16 :   0.3077 0.1538 0.0000  plane waves:    4066
 k-point    17 :   0.3846 0.1538 0.0000  plane waves:    4055
 k-point    18 :   0.4615 0.1538 0.0000  plane waves:    4054
 k-point    19 :   0.2308 0.2308 0.0000  plane waves:    4062
 k-point    20 :   0.3077 0.2308 0.0000  plane waves:    4069
 k-point    21 :   0.3846 0.2308 0.0000  plane waves:    4073
 k-point    22 :   0.4615 0.2308 0.0000  plane waves:    4081
 k-point    23 :   0.3077 0.3077 0.0000  plane waves:    4084
 k-point    24 :   0.3846 0.3077 0.0000  plane waves:    4084
 k-point    25 :   0.4615 0.3077 0.0000  plane waves:    4082
 k-point    26 :   0.3846 0.3846 0.0000  plane waves:    4082
 k-point    27 :   0.4615 0.3846 0.0000  plane waves:    4068
 k-point    28 :   0.4615 0.4615 0.0000  plane waves:    4094
 k-point    29 :   0.0000 0.0000 0.2500  plane waves:    4078
 k-point    30 :   0.0769 0.0000 0.2500  plane waves:    4075
 k-point    31 :   0.1538 0.0000 0.2500  plane waves:    4049
 k-point    32 :   0.2308 0.0000 0.2500  plane waves:    4053
 k-point    33 :   0.3077 0.0000 0.2500  plane waves:    4053
 k-point    34 :   0.3846 0.0000 0.2500  plane waves:    4066
 k-point    35 :   0.4615 0.0000 0.2500  plane waves:    4070
 k-point    36 :   0.0769 0.0769 0.2500  plane waves:    4065
 k-point    37 :   0.1538 0.0769 0.2500  plane waves:    4056
 k-point    38 :   0.2308 0.0769 0.2500  plane waves:    4054
 k-point    39 :   0.3077 0.0769 0.2500  plane waves:    4064
 k-point    40 :   0.3846 0.0769 0.2500  plane waves:    4062
 k-point    41 :   0.4615 0.0769 0.2500  plane waves:    4064
 k-point    42 :   0.1538 0.1538 0.2500  plane waves:    4044
 k-point    43 :   0.2308 0.1538 0.2500  plane waves:    4058
 k-point    44 :   0.3077 0.1538 0.2500  plane waves:    4058
 k-point    45 :   0.3846 0.1538 0.2500  plane waves:    4066
 k-point    46 :   0.4615 0.1538 0.2500  plane waves:    4063
 k-point    47 :   0.2308 0.2308 0.2500  plane waves:    4066
 k-point    48 :   0.3077 0.2308 0.2500  plane waves:    4075
 k-point    49 :   0.3846 0.2308 0.2500  plane waves:    4069
 k-point    50 :   0.4615 0.2308 0.2500  plane waves:    4068
 k-point    51 :   0.3077 0.3077 0.2500  plane waves:    4063
 k-point    52 :   0.3846 0.3077 0.2500  plane waves:    4078
 k-point    53 :   0.4615 0.3077 0.2500  plane waves:    4075
 k-point    54 :   0.3846 0.3846 0.2500  plane waves:    4076
 k-point    55 :   0.4615 0.3846 0.2500  plane waves:    4080
 k-point    56 :   0.4615 0.4615 0.2500  plane waves:    4081
 k-point    57 :   0.0000 0.0000 0.5000  plane waves:    4090
 k-point    58 :   0.0769 0.0000 0.5000  plane waves:    4096
 k-point    59 :   0.1538 0.0000 0.5000  plane waves:    4054
 k-point    60 :   0.2308 0.0000 0.5000  plane waves:    4058
 k-point    61 :   0.3077 0.0000 0.5000  plane waves:    4068
 k-point    62 :   0.3846 0.0000 0.5000  plane waves:    4060
 k-point    63 :   0.4615 0.0000 0.5000  plane waves:    4058
 k-point    64 :   0.0769 0.0769 0.5000  plane waves:    4074
 k-point    65 :   0.1538 0.0769 0.5000  plane waves:    4054
 k-point    66 :   0.2308 0.0769 0.5000  plane waves:    4062
 k-point    67 :   0.3077 0.0769 0.5000  plane waves:    4060
 k-point    68 :   0.3846 0.0769 0.5000  plane waves:    4050
 k-point    69 :   0.4615 0.0769 0.5000  plane waves:    4054
 k-point    70 :   0.1538 0.1538 0.5000  plane waves:    4052
 k-point    71 :   0.2308 0.1538 0.5000  plane waves:    4050
 k-point    72 :   0.3077 0.1538 0.5000  plane waves:    4064
 k-point    73 :   0.3846 0.1538 0.5000  plane waves:    4070
 k-point    74 :   0.4615 0.1538 0.5000  plane waves:    4072
 k-point    75 :   0.2308 0.2308 0.5000  plane waves:    4056
 k-point    76 :   0.3077 0.2308 0.5000  plane waves:    4070
 k-point    77 :   0.3846 0.2308 0.5000  plane waves:    4072
 k-point    78 :   0.4615 0.2308 0.5000  plane waves:    4076
 k-point    79 :   0.3077 0.3077 0.5000  plane waves:    4068
 k-point    80 :   0.3846 0.3077 0.5000  plane waves:    4066
 k-point    81 :   0.4615 0.3077 0.5000  plane waves:    4078
 k-point    82 :   0.3846 0.3846 0.5000  plane waves:    4098
 k-point    83 :   0.4615 0.3846 0.5000  plane waves:    4080
 k-point    84 :   0.4615 0.4615 0.5000  plane waves:    4086

 maximum and minimum number of plane-waves per node :      4098     4041

 maximum number of plane-waves:      4098
 maximum index in each direction: 
   IXMAX=    6   IYMAX=    6   IZMAX=   20
   IXMIN=   -7   IYMIN=   -7   IZMIN=  -21


 serial   3D FFT for wavefunctions
 parallel 3D FFT for charge:
    minimum data exchange during FFTs selected (reduces bandwidth)


 total amount of memory used by VASP MPI-rank0   185523. kBytes
=======================================================================

   base      :      30000. kBytes
   nonl-proj :     100657. kBytes
   fftplans  :        888. kBytes
   grid      :       6813. kBytes
   one-center:        373. kBytes
   wavefun   :      46792. kBytes
 
     INWAV:  cpu time      0.0000: real time      0.0000
 Broyden mixing: mesh for mixing (old mesh)
   NGX = 13   NGY = 13   NGZ = 41
  (NGX  = 56   NGY  = 56   NGZ  =168)
  gives a total of   6929 points

 initial charge density was supplied:
 charge density of overlapping atoms calculated
 number of electron     156.0000000 magnetization       8.2880000
 keeping initial charge density in first step


--------------------------------------------------------------------------------------------------------


 Maximum index for augmentation-charges         1052 (set IRDMAX)


--------------------------------------------------------------------------------------------------------


 First call to EWALD:  gamma=   0.333
 Maximum number of real-space cells 4x 4x 2
 Maximum number of reciprocal cells 2x 2x 5

    FEWALD:  cpu time      0.0022: real time      0.0022


--------------------------------------- Ionic step        1  -------------------------------------------




--------------------------------------- Iteration      1(   1)  ---------------------------------------


    POTLOK:  cpu time      0.0250: real time      0.0945
    SETDIJ:  cpu time      0.0094: real time      0.0096
     EDDAV:  cpu time      6.0033: real time      6.0675
 BZINTS: Fermi energy:   23.690772;  156.000000 electrons
         Band energy: 0.580989E+03;  BLOECHL correction:   -0.055904
       DOS:  cpu time      0.1271: real time      0.1291
    --------------------------------------------
      LOOP:  cpu time      6.1648: real time      6.3008

 eigenvalue-minimisations  : 43104
 total energy-change (2. order) : 0.1764209E+04  (-0.8445052E+04)
 number of electron     156.0000000 magnetization       8.2880000
 augmentation part      156.0000000 magnetization       8.2880000

 Free energy of the ion-electron system (eV)
  ---------------------------------------------------
  alpha Z        PSCENC =      1127.08695075
  Ewald energy   TEWEN  =    -18286.38870949
  -Hartree energ DENC   =     -5895.34442162
  -exchange      EXHF   =         0.00000000
  -V(xc)+E(xc)   XCENC  =       657.76585287
  PAW double counting   =     20094.78303793   -20818.78572773
  entropy T*S    EENTRO =         0.00000000
  eigenvalues    EBANDS =       580.98917525
  atomic energy  EATOM  =     24304.10294433
  Solvation  Ediel_sol  =         0.00000000
  ---------------------------------------------------
  free energy    TOTEN  =      1764.20910228 eV

  energy without entropy =     1764.20910228  energy(sigma->0) =     1764.20910228


--------------------------------------------------------------------------------------------------------




--------------------------------------- Iteration      1(   2)  ---------------------------------------


     EDDAV:  cpu time      5.8397: real time      5.8947
 BZINTS: Fermi energy:   12.730420;  156.000000 electrons
         Band energy:-0.117780E+04;  BLOECHL correction:   -0.020535
       DOS:  cpu time      0.1276: real time      0.1285
    --------------------------------------------
      LOOP:  cpu time      5.9672: real time      6.0232

 eigenvalue-minimisations  : 43008
 total energy-change (2. order) :-0.1758790E+04  (-0.1669388E+04)
 number of electron     156.0000000 magnetization       8.2880000
 augmentation part      156.0000000 magnetization       8.2880000

 Free energy of the ion-electron system (eV)
  ---------------------------------------------------
  alpha Z        PSCENC =      1127.08695075
  Ewald energy   TEWEN  =    -18286.38870949
  -Hartree energ DENC   =     -5895.34442162
  -exchange      EXHF   =         0.00000000
  -V(xc)+E(xc)   XCENC  =       657.76585287
  PAW double counting   =     20094.78303793   -20818.78572773
  entropy T*S    EENTRO =         0.00000000
  eigenvalues    EBANDS =     -1177.80127167
  atomic energy  EATOM  =     24304.10294433
  Solvation  Ediel_sol  =         0.00000000
  ---------------------------------------------------
  free energy    TOTEN  =         5.41865536 eV

  energy without entropy =        5.41865536  energy(sigma->0) =        5.41865536


--------------------------------------------------------------------------------------------------------




--------------------------------------- Iteration      1(   3)  ---------------------------------------


     EDDAV:  cpu time      7.0006: real time      7.0629
 BZINTS: Fermi energy:   12.140229;  156.000000 electrons
         Band energy:-0.128679E+04;  BLOECHL correction:   -0.021988
       DOS:  cpu time      0.2318: real time      0.2331
    --------------------------------------------
      LOOP:  cpu time      7.2324: real time      7.2961

 eigenvalue-minimisations  : 50784
 total energy-change (2. order) :-0.1089849E+03  (-0.1076364E+03)
 number of electron     156.0000000 magnetization       8.2880000
 augmentation part      156.0000000 magnetization       8.2880000

 Free energy of the ion-electron system (eV)
  ---------------------------------------------------
  alpha Z        PSCENC =      1127.08695075
  Ewald energy   TEWEN  =    -18286.38870949
  -Hartree energ DENC   =     -5895.34442162
  -exchange      EXHF   =         0.00000000
  -V(xc)+E(xc)   XCENC  =       657.76585287
  PAW double counting   =     20094.78303793   -20818.78572773
  entropy T*S    EENTRO =         0.00000000
  eigenvalues    EBANDS =     -1286.78612804
  atomic energy  EATOM  =     24304.10294433
  Solvation  Ediel_sol  =         0.00000000
  ---------------------------------------------------
  free energy    TOTEN  =      -103.56620101 eV

  energy without entropy =     -103.56620101  energy(sigma->0) =     -103.56620101


--------------------------------------------------------------------------------------------------------




--------------------------------------- Iteration      1(   4)  ---------------------------------------


     EDDAV:  cpu time      6.2025: real time      6.2587
 BZINTS: Fermi energy:   12.135213;  156.000000 electrons
         Band energy:-0.128834E+04;  BLOECHL correction:   -0.021998
       DOS:  cpu time      0.1259: real time      0.1272
    --------------------------------------------
      LOOP:  cpu time      6.3284: real time      6.3859

 eigenvalue-minimisations  : 45536
 total energy-change (2. order) :-0.1556514E+01  (-0.1556207E+01)
 number of electron     156.0000000 magnetization       8.2880000
 augmentation part      156.0000000 magnetization       8.2880000

 Free energy of the ion-electron system (eV)
  ---------------------------------------------------
  alpha Z        PSCENC =      1127.08695075
  Ewald energy   TEWEN  =    -18286.38870949
  -Hartree energ DENC   =     -5895.34442162
  -exchange      EXHF   =         0.00000000
  -V(xc)+E(xc)   XCENC  =       657.76585287
  PAW double counting   =     20094.78303793   -20818.78572773
  entropy T*S    EENTRO =         0.00000000
  eigenvalues    EBANDS =     -1288.34264218
  atomic energy  EATOM  =     24304.10294433
  Solvation  Ediel_sol  =         0.00000000
  ---------------------------------------------------
  free energy    TOTEN  =      -105.12271514 eV

  energy without entropy =     -105.12271514  energy(sigma->0) =     -105.12271514


--------------------------------------------------------------------------------------------------------




--------------------------------------- Iteration      1(   5)  ---------------------------------------


     EDDAV:  cpu time      7.5217: real time      7.5865
 BZINTS: Fermi energy:   12.135166;  156.000000 electrons
         Band energy:-0.128837E+04;  BLOECHL correction:   -0.021998
       DOS:  cpu time      0.1330: real time      0.1340
    CHARGE:  cpu time      0.1492: real time      0.1506
    MIXING:  cpu time      0.0071: real time      0.0078
    --------------------------------------------
      LOOP:  cpu time      7.8111: real time      7.8790

 eigenvalue-minimisations  : 53088
 total energy-change (2. order) :-0.2929686E-01  (-0.2929618E-01)
 number of electron     156.0000118 magnetization       7.7856547
 augmentation part       79.2438425 magnetization       5.8258861

 Broyden mixing:
  rms(total) = 0.39756E+01    rms(broyden)= 0.39750E+01
  rms(prec ) = 0.44812E+01
  weight for this iteration     100.00

 Free energy of the ion-electron system (eV)
  ---------------------------------------------------
  alpha Z        PSCENC =      1127.08695075
  Ewald energy   TEWEN  =    -18286.38870949
  -Hartree energ DENC   =     -5895.34442162
  -exchange      EXHF   =         0.00000000
  -V(xc)+E(xc)   XCENC  =       657.76585287
  PAW double counting   =     20094.78303793   -20818.78572773
  entropy T*S    EENTRO =         0.00000000
  eigenvalues    EBANDS =     -1288.37193903
  atomic energy  EATOM  =     24304.10294433
  Solvation  Ediel_sol  =         0.00000000
  ---------------------------------------------------
  free energy    TOTEN  =      -105.15201200 eV

  energy without entropy =     -105.15201200  energy(sigma->0) =     -105.15201200


--------------------------------------------------------------------------------------------------------




--------------------------------------- Iteration      1(   6)  ---------------------------------------


    POTLOK:  cpu time      0.0303: real time      0.0441
    SETDIJ:  cpu time      0.0069: real time      0.0071
     EDDAV:  cpu time      7.1443: real time      7.1913
 BZINTS: Fermi energy:    9.461528;  156.000000 electrons
         Band energy:-0.171166E+04;  BLOECHL correction:   -0.022332
       DOS:  cpu time      0.1363: real time      0.1373
    CHARGE:  cpu time      0.1490: real time      0.1499
    MIXING:  cpu time      0.0039: real time      0.0041
    --------------------------------------------
      LOOP:  cpu time      7.4707: real time      7.5337

 eigenvalue-minimisations  : 51648
 total energy-change (2. order) :-0.6172256E+01  (-0.1595393E+02)
 number of electron     156.0000134 magnetization       7.6225479
 augmentation part       88.3091001 magnetization       5.8392461

 Broyden mixing:
  rms(total) = 0.64138E+01    rms(broyden)= 0.64135E+01
  rms(prec ) = 0.98468E+01
  weight for this iteration     100.00

 eigenvalues of (default mixing * dielectric matrix)
  average eigenvalue GAMMA=   0.2550
  0.2550

 Free energy of the ion-electron system (eV)
  ---------------------------------------------------
  alpha Z        PSCENC =      1127.08695075
  Ewald energy   TEWEN  =    -18286.38870949
  -Hartree energ DENC   =     -5483.51607429
  -exchange      EXHF   =         0.00000000
  -V(xc)+E(xc)   XCENC  =       640.03184402
  PAW double counting   =     20533.46563233   -21234.44670031
  entropy T*S    EENTRO =         0.00000000
  eigenvalues    EBANDS =     -1711.66015497
  atomic energy  EATOM  =     24304.10294433
  Solvation  Ediel_sol  =         0.00000000
  ---------------------------------------------------
  free energy    TOTEN  =      -111.32426763 eV

  energy without entropy =     -111.32426763  energy(sigma->0) =     -111.32426763


--------------------------------------------------------------------------------------------------------




--------------------------------------- Iteration      1(   7)  ---------------------------------------


    POTLOK:  cpu time      0.0296: real time      0.0440
    SETDIJ:  cpu time      0.0073: real time      0.0073
     EDDAV:  cpu time      7.4063: real time      7.4554
 BZINTS: Fermi energy:   10.233820;  156.000000 electrons
         Band energy:-0.162959E+04;  BLOECHL correction:   -0.020442
       DOS:  cpu time      0.1378: real time      0.1387
    CHARGE:  cpu time      0.1479: real time      0.1487
    MIXING:  cpu time      0.0027: real time      0.0027
    --------------------------------------------
      LOOP:  cpu time      7.7316: real time      7.7968

 eigenvalue-minimisations  : 53088
 total energy-change (2. order) :-0.2951988E+01  (-0.4575104E+02)
 number of electron     156.0000122 magnetization       6.9555620
 augmentation part       85.6974541 magnetization       6.4390487

 Broyden mixing:
  rms(total) = 0.64364E+01    rms(broyden)= 0.64360E+01
  rms(prec ) = 0.10387E+02
  weight for this iteration     100.00

 eigenvalues of (default mixing * dielectric matrix)
  average eigenvalue GAMMA=   0.3032
  0.4945  0.1119

 Free energy of the ion-electron system (eV)
  ---------------------------------------------------
  alpha Z        PSCENC =      1127.08695075
  Ewald energy   TEWEN  =    -18286.38870949
  -Hartree energ DENC   =     -5555.28637239
  -exchange      EXHF   =         0.00000000
  -V(xc)+E(xc)   XCENC  =       641.97670153
  PAW double counting   =     20837.15662619   -21553.33781889
  entropy T*S    EENTRO =         0.00000000
  eigenvalues    EBANDS =     -1629.58657785
  atomic energy  EATOM  =     24304.10294433
  Solvation  Ediel_sol  =         0.00000000
  ---------------------------------------------------
  free energy    TOTEN  =      -114.27625582 eV

  energy without entropy =     -114.27625582  energy(sigma->0) =     -114.27625582


--------------------------------------------------------------------------------------------------------




--------------------------------------- Iteration      1(   8)  ---------------------------------------


    POTLOK:  cpu time      0.0300: real time      0.0441
    SETDIJ:  cpu time      0.0080: real time      0.0081
     EDDAV:  cpu time      7.1374: real time      7.1852
 BZINTS: Fermi energy:   10.681499;  156.000000 electrons
         Band energy:-0.151750E+04;  BLOECHL correction:   -0.025031
       DOS:  cpu time      0.2343: real time      0.2357
    CHARGE:  cpu time      0.1498: real time      0.1506
    MIXING:  cpu time      0.0017: real time      0.0017
    --------------------------------------------
      LOOP:  cpu time      7.5612: real time      7.6254

 eigenvalue-minimisations  : 51680
 total energy-change (2. order) : 0.1544013E+02  (-0.1299509E+02)
 number of electron     156.0000134 magnetization       6.7587018
 augmentation part       83.6451279 magnetization       4.3101525

 Broyden mixing:
  rms(total) = 0.37634E+01    rms(broyden)= 0.37629E+01
  rms(prec ) = 0.53134E+01
  weight for this iteration     100.00

 eigenvalues of (default mixing * dielectric matrix)
  average eigenvalue GAMMA=   0.3903
  0.7542  0.3098  0.1070

 Free energy of the ion-electron system (eV)
  ---------------------------------------------------
  alpha Z        PSCENC =      1127.08695075
  Ewald energy   TEWEN  =    -18286.38870949
  -Hartree energ DENC   =     -5632.32234863
  -exchange      EXHF   =         0.00000000
  -V(xc)+E(xc)   XCENC  =       644.09637673
  PAW double counting   =     21331.80194177   -22069.71294566
  entropy T*S    EENTRO =         0.00000000
  eigenvalues    EBANDS =     -1517.50033545
  atomic energy  EATOM  =     24304.10294433
  Solvation  Ediel_sol  =         0.00000000
  ---------------------------------------------------
  free energy    TOTEN  =       -98.83612565 eV

  energy without entropy =      -98.83612565  energy(sigma->0) =      -98.83612565


--------------------------------------------------------------------------------------------------------




--------------------------------------- Iteration      1(   9)  ---------------------------------------


    POTLOK:  cpu time      0.0436: real time      0.0444
    SETDIJ:  cpu time      0.0080: real time      0.0081
     EDDAV:  cpu time      7.0631: real time      7.1103
 BZINTS: Fermi energy:   10.759271;  156.000000 electrons
         Band energy:-0.152987E+04;  BLOECHL correction:   -0.017703
       DOS:  cpu time      0.1386: real time      0.1397
    CHARGE:  cpu time      0.1513: real time      0.1521
    MIXING:  cpu time      0.0018: real time      0.0018
    --------------------------------------------
      LOOP:  cpu time      7.4065: real time      7.4563

 eigenvalue-minimisations  : 51104
 total energy-change (2. order) :-0.5186274E+01  (-0.2108313E+02)
 number of electron     156.0000115 magnetization       6.0426250
 augmentation part       83.7979064 magnetization       5.6126479

 Broyden mixing:
  rms(total) = 0.49847E+01    rms(broyden)= 0.49842E+01
  rms(prec ) = 0.70656E+01
  weight for this iteration     100.00

 eigenvalues of (default mixing * dielectric matrix)
  average eigenvalue GAMMA=   0.4649
  1.2427  0.4114  0.1075  0.0982

 Free energy of the ion-electron system (eV)
  ---------------------------------------------------
  alpha Z        PSCENC =      1127.08695075
  Ewald energy   TEWEN  =    -18286.38870949
  -Hartree energ DENC   =     -5619.65574981
  -exchange      EXHF   =         0.00000000
  -V(xc)+E(xc)   XCENC  =       643.43314643
  PAW double counting   =     21514.28315995   -22257.01290801
  entropy T*S    EENTRO =         0.00000000
  eigenvalues    EBANDS =     -1529.87123379
  atomic energy  EATOM  =     24304.10294433
  Solvation  Ediel_sol  =         0.00000000
  ---------------------------------------------------
  free energy    TOTEN  =      -104.02239964 eV

  energy without entropy =     -104.02239964  energy(sigma->0) =     -104.02239964


--------------------------------------------------------------------------------------------------------




--------------------------------------- Iteration      1(  10)  ---------------------------------------


    POTLOK:  cpu time      0.0307: real time      0.0438
    SETDIJ:  cpu time      0.0082: real time      0.0082
     EDDAV:  cpu time      7.2649: real time      7.3129
 BZINTS: Fermi energy:   10.198958;  156.000000 electrons
         Band energy:-0.156639E+04;  BLOECHL correction:   -0.019864
       DOS:  cpu time      0.1361: real time      0.1371
    CHARGE:  cpu time      0.1509: real time      0.1518
    MIXING:  cpu time      0.0019: real time      0.0020
    --------------------------------------------
      LOOP:  cpu time      7.5927: real time      7.6558

 eigenvalue-minimisations  : 52000
 total energy-change (2. order) : 0.7181016E+01  (-0.9736761E+01)
 number of electron     156.0000118 magnetization       5.8825798
 augmentation part       84.8109282 magnetization       4.7285371

 Broyden mixing:
  rms(total) = 0.34993E+01    rms(broyden)= 0.34989E+01
  rms(prec ) = 0.53953E+01
  weight for this iteration     100.00

 eigenvalues of (default mixing * dielectric matrix)
  average eigenvalue GAMMA=   0.3981
  1.2393  0.4155  0.1210  0.1210  0.0939

 Free energy of the ion-electron system (eV)
  ---------------------------------------------------
  alpha Z        PSCENC =      1127.08695075
  Ewald energy   TEWEN  =    -18286.38870949
  -Hartree energ DENC   =     -5569.11194379
  -exchange      EXHF   =         0.00000000
  -V(xc)+E(xc)   XCENC  =       641.18529326
  PAW double counting   =     21782.78285960   -22530.10859069
  entropy T*S    EENTRO =         0.00000000
  eigenvalues    EBANDS =     -1566.39018751
  atomic energy  EATOM  =     24304.10294433
  Solvation  Ediel_sol  =         0.00000000
  ---------------------------------------------------
  free energy    TOTEN  =       -96.84138354 eV

  energy without entropy =      -96.84138354  energy(sigma->0) =      -96.84138354


--------------------------------------------------------------------------------------------------------




--------------------------------------- Iteration      1(  11)  ---------------------------------------


    POTLOK:  cpu time      0.0301: real time      0.0442
    SETDIJ:  cpu time      0.0080: real time      0.0081
     EDDAV:  cpu time      7.3166: real time      7.3655
 BZINTS: Fermi energy:   10.120587;  156.000000 electrons
         Band energy:-0.156602E+04;  BLOECHL correction:   -0.023379
       DOS:  cpu time      0.2473: real time      0.2486
    CHARGE:  cpu time      0.1474: real time      0.1482
    MIXING:  cpu time      0.0019: real time      0.0019
    --------------------------------------------
      LOOP:  cpu time      7.7512: real time      7.8164

 eigenvalue-minimisations  : 52096
 total energy-change (2. order) : 0.4973525E+01  (-0.3224939E+01)
 number of electron     156.0000124 magnetization       5.8590953
 augmentation part       84.7210108 magnetization       4.3184411

 Broyden mixing:
  rms(total) = 0.12445E+01    rms(broyden)= 0.12441E+01
  rms(prec ) = 0.16799E+01
  weight for this iteration     100.00

 eigenvalues of (default mixing * dielectric matrix)
  average eigenvalue GAMMA=   0.3872
  1.2166  0.3925  0.3925  0.1344  0.0988  0.0881

 Free energy of the ion-electron system (eV)
  ---------------------------------------------------
  alpha Z        PSCENC =      1127.08695075
  Ewald energy   TEWEN  =    -18286.38870949
  -Hartree energ DENC   =     -5563.54074888
  -exchange      EXHF   =         0.00000000
  -V(xc)+E(xc)   XCENC  =       641.00034708
  PAW double counting   =     21820.23378615   -22568.34666791
  entropy T*S    EENTRO =         0.00000000
  eigenvalues    EBANDS =     -1566.01576024
  atomic energy  EATOM  =     24304.10294433
  Solvation  Ediel_sol  =         0.00000000
  ---------------------------------------------------
  free energy    TOTEN  =       -91.86785821 eV

  energy without entropy =      -91.86785821  energy(sigma->0) =      -91.86785821


--------------------------------------------------------------------------------------------------------




--------------------------------------- Iteration      1(  12)  ---------------------------------------


    POTLOK:  cpu time      0.0431: real time      0.0439
    SETDIJ:  cpu time      0.0081: real time      0.0081
     EDDAV:  cpu time      7.4024: real time      7.4504
 BZINTS: Fermi energy:   10.157783;  156.000000 electrons
         Band energy:-0.156494E+04;  BLOECHL correction:   -0.023354
       DOS:  cpu time      0.1385: real time      0.1393
    CHARGE:  cpu time      0.1483: real time      0.1491
    MIXING:  cpu time      0.0019: real time      0.0019
    --------------------------------------------
      LOOP:  cpu time      7.7423: real time      7.7927

 eigenvalue-minimisations  : 52640
 total energy-change (2. order) :-0.2180922E+01  (-0.2173053E+01)
 number of electron     156.0000125 magnetization       5.9188680
 augmentation part       84.6716391 magnetization       4.0711699

 Broyden mixing:
  rms(total) = 0.23812E+01    rms(broyden)= 0.23809E+01
  rms(prec ) = 0.35559E+01
  weight for this iteration     100.00

 eigenvalues of (default mixing * dielectric matrix)
  average eigenvalue GAMMA=   0.3513
  1.2116  0.4044  0.4044  0.1576  0.1014  0.1014  0.0780

 Free energy of the ion-electron system (eV)
  ---------------------------------------------------
  alpha Z        PSCENC =      1127.08695075
  Ewald energy   TEWEN  =    -18286.38870949
  -Hartree energ DENC   =     -5565.52102390
  -exchange      EXHF   =         0.00000000
  -V(xc)+E(xc)   XCENC  =       641.45827685
  PAW double counting   =     21854.84225522   -22604.68869717
  entropy T*S    EENTRO =         0.00000000
  eigenvalues    EBANDS =     -1564.94077708
  atomic energy  EATOM  =     24304.10294433
  Solvation  Ediel_sol  =         0.00000000
  ---------------------------------------------------
  free energy    TOTEN  =       -94.04878049 eV

  energy without entropy =      -94.04878049  energy(sigma->0) =      -94.04878049


--------------------------------------------------------------------------------------------------------




--------------------------------------- Iteration      1(  13)  ---------------------------------------


    POTLOK:  cpu time      0.0433: real time      0.0441
    SETDIJ:  cpu time      0.0082: real time      0.0082
     EDDAV:  cpu time      7.2574: real time      7.3060
 BZINTS: Fermi energy:   10.162197;  156.000000 electrons
         Band energy:-0.156145E+04;  BLOECHL correction:   -0.022422
       DOS:  cpu time      0.1377: real time      1.3825
    CHARGE:  cpu time      0.1499: real time      0.1507
    MIXING:  cpu time      0.0020: real time      0.0020
    --------------------------------------------
      LOOP:  cpu time      7.5984: real time      8.8936

 eigenvalue-minimisations  : 52000
 total energy-change (2. order) : 0.1612973E+01  (-0.1740175E+01)
 number of electron     156.0000124 magnetization       6.0563758
 augmentation part       84.6122640 magnetization       4.2857328

 Broyden mixing:
  rms(total) = 0.87488E+00    rms(broyden)= 0.87448E+00
  rms(prec ) = 0.94286E+00
  weight for this iteration     100.00

 eigenvalues of (default mixing * dielectric matrix)
  average eigenvalue GAMMA=   0.3868
  1.2377  0.5566  0.5566  0.3523  0.1269  0.1040  0.0803  0.0803

 Free energy of the ion-electron system (eV)
  ---------------------------------------------------
  alpha Z        PSCENC =      1127.08695075
  Ewald energy   TEWEN  =    -18286.38870949
  -Hartree energ DENC   =     -5566.82487685
  -exchange      EXHF   =         0.00000000
  -V(xc)+E(xc)   XCENC  =       641.65640574
  PAW double counting   =     21872.06740808   -22622.68943562
  entropy T*S    EENTRO =         0.00000000
  eigenvalues    EBANDS =     -1561.44649408
  atomic energy  EATOM  =     24304.10294433
  Solvation  Ediel_sol  =         0.00000000
  ---------------------------------------------------
  free energy    TOTEN  =       -92.43580714 eV

  energy without entropy =      -92.43580714  energy(sigma->0) =      -92.43580714


--------------------------------------------------------------------------------------------------------




--------------------------------------- Iteration      1(  14)  ---------------------------------------


    POTLOK:  cpu time      0.0297: real time      0.0442
    SETDIJ:  cpu time      0.0078: real time      0.0079
     EDDAV:  cpu time      7.1693: real time      7.2162
[...]
    113      24.9532      0.00000
    114      25.3634      0.00000
    115      25.4199      0.00000
    116      25.6897      0.00000
    117      25.8536      0.00000
    118      26.6260      0.00000
    119      26.7680      0.00000
    120      27.9058      0.00000
    121      27.9442      0.00000
    122      27.9779      0.00000
    123      28.4556      0.00000
    124      29.2522      0.00000
    125      29.5458      0.00000
    126      29.7305      0.00000
    127      29.9630      0.00000
    128      30.5633      0.00000


--------------------------------------------------------------------------------------------------------


 soft charge-density along one line, spin component           1
         0         1         2         3         4         5         6         7         8         9
 total charge-density along one line
 
 soft charge-density along one line, spin component           2
         0         1         2         3         4         5         6         7         8         9
 total charge-density along one line
 
 pseudopotential strength for first ion, spin component:           1
-42.675  -0.000  -0.000   6.649   0.000   0.000  -0.000   0.001
 -0.000 -42.712  -0.000   0.000   6.664   0.000   0.000   0.000
 -0.000  -0.000 -42.646   0.000   0.000   6.636   0.000   0.000
  6.649   0.000   0.000   5.897   0.000   0.000   0.000  -0.000
  0.000   6.664   0.000   0.000   5.892   0.000  -0.000  -0.000
  0.000   0.000   6.636   0.000   0.000   5.898  -0.000  -0.000
 -0.000   0.000   0.000   0.000  -0.000  -0.000  -0.249  -0.000
  0.001   0.000   0.000  -0.000  -0.000  -0.000  -0.000  -0.246
 -0.000   0.001   0.000   0.000   0.001  -0.000   0.000  -0.000
  0.000  -0.000  -0.007  -0.000   0.000   0.005   0.000  -0.000
 -0.000  -0.004  -0.000   0.000   0.003   0.000   0.000   0.000
 -0.000   0.000   0.000   0.000  -0.000  -0.000  -0.792  -0.000
  0.001   0.000   0.000  -0.000  -0.000  -0.000  -0.000  -0.789
 -0.000   0.001   0.000   0.000   0.001  -0.000   0.000  -0.000
  0.000   0.000  -0.007  -0.000   0.000   0.005   0.000  -0.000
 -0.000  -0.004  -0.000   0.000   0.003   0.000   0.000   0.000
 -0.000   0.002   0.000  -0.000   0.001   0.000   0.000   0.000
 -0.000   0.006   0.000  -0.000   0.004   0.000   0.000   0.000
 pseudopotential strength for first ion, spin component:           2
-44.712  -0.000  -0.000   7.508   0.000   0.000  -0.000   0.005
 -0.000 -44.788  -0.000   0.000   7.537   0.000   0.000   0.000
 -0.000  -0.000 -44.618   0.000   0.000   7.469   0.000   0.000
  7.508   0.000   0.000   5.656   0.000   0.000  -0.000  -0.003
  0.000   7.537   0.000   0.000   5.649   0.000  -0.000  -0.000
  0.000   0.000   7.469   0.000   0.000   5.663  -0.000  -0.000
 -0.000   0.000   0.000  -0.000  -0.000  -0.000  -1.808  -0.000
  0.005   0.000   0.000  -0.003  -0.000  -0.000  -0.000  -1.977
 -0.000   0.014   0.000   0.000  -0.007   0.000   0.000  -0.000
  0.000   0.000   0.024  -0.000  -0.000  -0.011  -0.000  -0.000
 -0.000   0.009   0.000   0.000  -0.004   0.000   0.000   0.000
 -0.000   0.000   0.000  -0.000  -0.000  -0.000  -2.326  -0.000
  0.005   0.000   0.000  -0.003  -0.000  -0.000  -0.000  -2.492
 -0.000   0.014   0.000   0.000  -0.006   0.000   0.000  -0.000
  0.000   0.000   0.023  -0.000  -0.000  -0.011  -0.000  -0.000
 -0.000   0.009  -0.000   0.000  -0.004  -0.000   0.000   0.000
 -0.000  -0.005  -0.000  -0.000   0.003  -0.000   0.000   0.000
 -0.000  -0.013  -0.000  -0.000   0.009  -0.000   0.000   0.000
 total augmentation occupancy for first ion, spin component:           1
  1.992   0.000   0.000  -0.027   0.000   0.000   0.000  -0.006   0.000  -0.000   0.000   0.000   0.006   0.000   0.000   0.000
  0.000   1.992  -0.000   0.000  -0.027   0.000   0.000   0.000  -0.004  -0.000   0.002   0.000   0.000   0.004   0.000  -0.002
  0.000  -0.000   1.992   0.000   0.000  -0.027   0.000  -0.000   0.000  -0.001  -0.000  -0.000   0.000  -0.000   0.001  -0.000
 -0.027   0.000   0.000   0.193   0.000   0.000   0.000  -0.017   0.000   0.000  -0.000   0.000   0.022   0.000   0.000   0.000
  0.000  -0.027   0.000   0.000   0.193   0.000   0.000   0.000  -0.009   0.000   0.016  -0.000   0.000   0.003   0.000  -0.026
  0.000   0.000  -0.027   0.000   0.000   0.172  -0.000   0.000   0.000   0.011  -0.000   0.000  -0.000   0.000  -0.031   0.000
  0.000   0.000   0.000   0.000   0.000  -0.000   2.680   0.000  -0.000   0.000  -0.000  -1.482   0.000   0.000   0.000   0.000
 -0.006   0.000  -0.000  -0.017   0.000   0.000   0.000   2.914   0.000   0.000   0.000  -0.000  -2.042   0.000   0.000   0.000
  0.000  -0.004   0.000   0.000  -0.009   0.000  -0.000   0.000   3.270   0.000   0.230   0.000   0.000  -1.904   0.000  -0.122
 -0.000  -0.000  -0.001   0.000   0.000   0.011   0.000   0.000   0.000   2.580   0.000   0.000   0.000   0.000  -1.422   0.000
  0.000   0.002  -0.000  -0.000   0.016  -0.000  -0.000   0.000   0.230   0.000   2.989   0.000   0.000  -0.123  -0.000  -1.742
  0.000   0.000  -0.000   0.000  -0.000   0.000  -1.482  -0.000   0.000   0.000   0.000   1.712  -0.000   0.000   0.000   0.000
  0.006   0.000   0.000   0.022   0.000  -0.000   0.000  -2.042   0.000   0.000   0.000  -0.000   2.412   0.000   0.000   0.000
  0.000   0.004  -0.000   0.000   0.003   0.000   0.000   0.000  -1.904   0.000  -0.123   0.000   0.000   1.853   0.000   0.045
  0.000   0.000   0.001   0.000   0.000  -0.031   0.000   0.000   0.000  -1.422  -0.000   0.000   0.000   0.000   1.646  -0.000
  0.000  -0.002  -0.000   0.000  -0.026   0.000   0.000   0.000  -0.122   0.000  -1.742   0.000   0.000   0.045  -0.000   1.783
  0.000  -0.001  -0.000   0.000   0.001  -0.000   0.000   0.000  -0.115   0.000   0.191   0.000   0.000   0.078   0.000  -0.147
  0.000   0.001   0.000  -0.000   0.000   0.000   0.000   0.000   0.012   0.000  -0.011   0.000   0.000  -0.007   0.000   0.008
 total augmentation occupancy for first ion, spin component:           2
  0.002  -0.000   0.000   0.008   0.000   0.000   0.000   0.002  -0.000   0.000   0.000   0.000  -0.002   0.000   0.000   0.000
 -0.000   0.002   0.000   0.000   0.007   0.000   0.000   0.000   0.005   0.000   0.004   0.000   0.000  -0.005   0.000  -0.005
  0.000   0.000   0.002   0.000   0.000   0.008   0.000   0.000   0.000   0.011  -0.000  -0.000  -0.000   0.000  -0.012  -0.000
  0.008   0.000   0.000  -0.007   0.000   0.000   0.000   0.019   0.000   0.000   0.000   0.000  -0.017   0.000   0.000   0.000
  0.000   0.007   0.000   0.000  -0.002   0.000   0.000   0.000  -0.009   0.000  -0.039  -0.000   0.000  -0.006   0.000   0.016
  0.000   0.000   0.008   0.000   0.000  -0.003  -0.000   0.000   0.000  -0.068   0.000  -0.000  -0.000   0.000   0.017  -0.000
  0.000   0.000   0.000   0.000   0.000  -0.000  -1.957   0.000   0.000   0.000   0.000   0.868   0.000  -0.000   0.000   0.000
  0.002   0.000   0.000   0.019   0.000   0.000   0.000  -1.939   0.000   0.000   0.000   0.000   0.652   0.000   0.000  -0.000
 -0.000   0.005   0.000   0.000  -0.009   0.000   0.000   0.000  -2.470   0.000  -0.069   0.000  -0.000   1.074   0.000   0.072
  0.000   0.000   0.011   0.000   0.000  -0.068   0.000   0.000   0.000  -1.783   0.000   0.000   0.000   0.000   0.640   0.000
  0.000   0.004  -0.000   0.000  -0.039   0.000   0.000   0.000  -0.069   0.000  -2.258  -0.000   0.000   0.072  -0.000   0.857
  0.000   0.000  -0.000   0.000  -0.000  -0.000   0.868   0.000   0.000   0.000  -0.000  -0.208  -0.000   0.000   0.000  -0.000
 -0.002   0.000  -0.000  -0.017   0.000  -0.000   0.000   0.652  -0.000   0.000   0.000  -0.000   0.050   0.000   0.000   0.000
  0.000  -0.005   0.000   0.000  -0.006   0.000  -0.000   0.000   1.074   0.000   0.072   0.000   0.000  -0.341   0.000  -0.076
  0.000   0.000  -0.012   0.000   0.000   0.017   0.000   0.000   0.000   0.640  -0.000   0.000   0.000   0.000   0.003   0.000
  0.000  -0.005  -0.000   0.000   0.016  -0.000   0.000  -0.000   0.072   0.000   0.857  -0.000   0.000  -0.076   0.000  -0.122
  0.000  -0.002   0.000   0.000  -0.017   0.000   0.000   0.000  -0.005   0.000  -0.040   0.000   0.000  -0.011   0.000   0.035
  0.000   0.000  -0.000   0.000  -0.000   0.000   0.000   0.000  -0.007   0.000   0.004   0.000   0.000   0.002   0.000  -0.001


------------------------ aborting loop because EDIFF is reached ----------------------------------------





 total charge

# of ion       s       p       d       tot
------------------------------------------
    1        0.359   6.347   6.051  12.758
    2        0.355   6.340   6.061  12.756
    3        0.355   6.341   6.038  12.734
    4        0.362   6.350   6.037  12.749
    5        0.361   6.348   6.037  12.746
    6        0.356   6.344   6.039  12.739
    7        0.359   6.347   6.051  12.758
    8        0.355   6.340   6.061  12.756
    9        0.355   6.341   6.038  12.734
   10        0.786   0.731   8.040   9.557
   11        0.789   0.724   8.047   9.560
   12        0.774   0.740   8.041   9.555
--------------------------------------------------
tot          5.568  59.295  78.541 143.403



 magnetization (x)

# of ion       s       p       d       tot
------------------------------------------
    1       -0.012  -0.006  -2.384  -2.402
    2        0.001  -0.012   2.555   2.545
    3        0.009   0.002   2.487   2.498
    4       -0.017  -0.022  -2.438  -2.476
    5        0.014   0.022   2.453   2.489
    6        0.001  -0.014   2.690   2.677
    7       -0.012  -0.006  -2.384  -2.402
    8        0.001  -0.012   2.555   2.545
    9        0.009   0.002   2.487   2.498
   10        0.007   0.013  -0.063  -0.043
   11       -0.009  -0.018   0.091   0.065
   12       -0.039  -0.096   0.399   0.264
--------------------------------------------------
tot         -0.045  -0.147   8.447   8.255
 
    CHARGE:  cpu time      0.1437: real time      0.1445
    FORLOC:  cpu time      0.0016: real time      0.0016
    FORNL :  cpu time      0.7039: real time      0.7078
    STRESS:  cpu time      4.3278: real time      4.3612
    FORCOR:  cpu time      0.0199: real time      0.0200
    FORHAR:  cpu time      0.0025: real time      0.0026
    MIXING:  cpu time      0.0897: real time      0.0901
    OFIELD:  cpu time      0.0018: real time      0.0019

  FORCE on cell =-STRESS in cart. coord.  units (eV):
  Direction    XX          YY          ZZ          XY          YZ          ZX
  --------------------------------------------------------------------------------------
  Alpha Z  1127.08695  1127.08695  1127.08695
  Ewald   -6088.46225 -6088.46225 -6109.48710     0.00000    -0.00000     0.00000
  Hartree  1856.66890  1856.66890  1837.37055    -0.00000    -0.00000    -0.00000
  E(xc)    -944.38121  -944.38121  -944.32340    -0.00000     0.00000     0.00000
  Local    1123.86429  1123.86429  1170.34039     0.00000     0.00000     0.00000
  n-local  -208.61866  -222.50976  -215.65444    14.93269     0.14342     0.20565
  augment  1439.33112  1439.33112  1435.24303     0.00000     0.00000     0.00000
  Kinetic  1712.76782  1695.75052  1702.07825     3.33752     0.05463     0.05099
  Fock        0.00000     0.00000     0.00000     0.00000     0.00000     0.00000
  -------------------------------------------------------------------------------------
  Total       2.80277     2.80277     2.65423     0.00000     0.00000     0.00000
  in kB      29.73861    29.73861    28.16255     0.00000     0.00000     0.00000
  external pressure =       29.21 kB  Pullay stress =        0.00 kB


 VOLUME and BASIS-vectors are now :
 -----------------------------------------------------------------------------
  energy-cutoff  :      520.00
  volume of cell :      151.00
      direct lattice vectors                 reciprocal lattice vectors
     3.677700163  0.000000000  0.000000000     0.271909062  0.000000000  0.000000000
     0.000000000  3.677700163  0.000000000     0.000000000  0.271909062  0.000000000
     0.000000000  0.000000000 11.164115204     0.000000000  0.000000000  0.089572705

  length of vectors
     3.677700163  3.677700163 11.164115204     0.271909062  0.271909062  0.089572705


 FORCES acting on ions
    electron-ion (+dipol)            ewald-force                    non-local-force                 convergence-correction
 -----------------------------------------------------------------------------------------------
   -.703E-13 0.129E-11 -.448E+00   -.565E-13 -.161E-13 -.464E+00   0.318E-18 -.587E-18 0.911E+00   0.247E-13 -.377E-14 -.691E-02
   -.692E-13 0.111E-11 -.264E+02   -.470E-13 -.118E-13 0.268E+02   0.728E-19 -.950E-18 -.385E+00   0.135E-13 0.268E-15 -.298E-02
   -.587E-13 -.374E-12 0.110E+02   -.359E-13 0.137E-14 -.123E+02   0.790E-18 -.611E-18 0.123E+01   0.129E-13 -.950E-14 0.956E-02
   0.104E-11 -.422E-11 0.676E+02   -.316E-13 0.765E-13 -.652E+02   -.388E-18 0.101E-17 -.237E+01   -.941E-13 -.655E-13 0.740E-02
   0.105E-11 0.763E-11 0.300E+02   0.578E-13 0.374E-13 -.280E+02   -.166E-18 0.948E-18 -.199E+01   -.996E-13 -.460E-13 -.114E-01
   0.106E-11 -.441E-11 -.498E+02   -.763E-13 0.453E-13 0.499E+02   0.129E-18 0.409E-19 -.131E+00   -.832E-13 -.221E-13 0.456E-02
   0.106E-11 -.184E-13 -.448E+00   0.754E-14 -.335E-13 -.464E+00   -.229E-18 -.401E-18 0.911E+00   -.138E-12 0.957E-14 -.691E-02
   0.107E-11 0.206E-12 -.264E+02   0.823E-14 -.383E-13 0.268E+02   -.593E-19 -.251E-18 -.385E+00   -.133E-12 0.371E-14 -.298E-02
   0.107E-11 -.758E-13 0.110E+02   0.442E-13 -.885E-14 -.123E+02   0.712E-19 0.310E-18 0.123E+01   -.132E-12 -.118E-13 0.956E-02
   -.473E-13 -.639E-13 0.189E+02   0.193E-13 -.706E-13 -.191E+02   -.133E-18 0.992E-18 0.266E+00   0.449E-13 0.101E-13 0.546E-02
   -.427E-13 -.194E-13 -.123E+02   0.355E-14 0.203E-13 0.122E+02   -.290E-18 0.434E-18 0.626E-01   0.474E-13 0.943E-14 -.857E-02
   -.440E-13 -.264E-13 -.224E+02   0.516E-13 -.518E-13 0.221E+02   -.776E-19 0.261E-18 0.219E+00   0.383E-13 0.903E-14 0.319E-02
 -----------------------------------------------------------------------------------------------
   0.601E-11 0.103E-11 0.438E+00   -.551E-13 -.501E-13 -.277E-12   0.388E-19 0.119E-17 -.433E+00   -.498E-12 -.117E-12 -.655E-04
 
 
 POSITION                                       TOTAL-FORCE (eV/Angst)
 -----------------------------------------------------------------------------------
      0.00000      1.83885      1.86008         0.000000     -0.000000     -0.007346
      0.00000      1.83885      5.57260         0.000000     -0.000000      0.001418
      0.00000      1.83885      9.31013         0.000000     -0.000000     -0.015904
      1.83885      1.83885      0.05230        -0.000000     -0.000000      0.030445
      1.83885      1.83885      3.76182        -0.000000      0.000000      0.005715
      1.83885      1.83885      7.41556         0.000000     -0.000000     -0.005287
      1.83885      0.00000      1.86008        -0.000000     -0.000000     -0.007346
      1.83885      0.00000      5.57260         0.000000     -0.000000      0.001418
      1.83885      0.00000      9.31013         0.000000     -0.000000     -0.015904
      0.00000      0.00000     11.14772         0.000000     -0.000000      0.001837
      0.00000      0.00000      3.68130         0.000000     -0.000000     -0.006545
      0.00000      0.00000      7.44038         0.000000     -0.000000      0.017496
 -----------------------------------------------------------------------------------
    total drift:                                0.000000      0.000000      0.004145


--------------------------------------------------------------------------------------------------------



  FREE ENERGIE OF THE ION-ELECTRON SYSTEM (eV)
  ---------------------------------------------------
  free  energy   TOTEN  =       -93.33582878 eV

  energy  without entropy=      -93.33582878  energy(sigma->0) =      -93.33582878
 


--------------------------------------------------------------------------------------------------------


    POTLOK:  cpu time      0.0363: real time      0.0367


--------------------------------------------------------------------------------------------------------


     LOOP+:  cpu time    234.5556: real time    237.8484
 -----------------------------------------------------------------------------
|                                                                             |
|           W    W    AA    RRRRR   N    N  II  N    N   GGGG   !!!           |
|           W    W   A  A   R    R  NN   N  II  NN   N  G    G  !!!           |
|           W    W  A    A  R    R  N N  N  II  N N  N  G       !!!           |
|           W WW W  AAAAAA  RRRRR   N  N N  II  N  N N  G  GGG   !            |
|           WW  WW  A    A  R   R   N   NN  II  N   NN  G    G                |
|           W    W  A    A  R    R  N    N  II  N    N   GGGG   !!!           |
|                                                                             |
|     Tetrahedron method does not include variations of the Fermi             |
|     occupations, so forces and stress will be inaccurate. We suggest        |
|     using a different smearing scheme ISMEAR = 1 or 2 for metals in         |
|     relaxations.                                                            |
|                                                                             |
 -----------------------------------------------------------------------------

    4ORBIT:  cpu time      0.0000: real time      0.0000



 total charge

# of ion       s       p       d       tot
------------------------------------------
    1        0.359   6.347   6.051  12.758
    2        0.355   6.340   6.061  12.756
    3        0.355   6.341   6.038  12.734
    4        0.362   6.350   6.037  12.749
    5        0.361   6.348   6.037  12.746
    6        0.356   6.344   6.039  12.739
    7        0.359   6.347   6.051  12.758
    8        0.355   6.340   6.061  12.756
    9        0.355   6.341   6.038  12.734
   10        0.786   0.731   8.040   9.557
   11        0.789   0.724   8.047   9.560
   12        0.774   0.740   8.041   9.555
--------------------------------------------------
tot          5.568  59.295  78.541 143.403



 magnetization (x)

# of ion       s       p       d       tot
------------------------------------------
    1       -0.012  -0.006  -2.384  -2.402
    2        0.001  -0.012   2.555   2.545
    3        0.009   0.002   2.487   2.498
    4       -0.017  -0.022  -2.438  -2.476
    5        0.014   0.022   2.453   2.489
    6        0.001  -0.014   2.690   2.677
    7       -0.012  -0.006  -2.384  -2.402
    8        0.001  -0.012   2.555   2.545
    9        0.009   0.002   2.487   2.498
   10        0.007   0.013  -0.063  -0.043
   11       -0.009  -0.018   0.091   0.065
   12       -0.039  -0.096   0.399   0.264
--------------------------------------------------
tot         -0.045  -0.147   8.447   8.255
 
 BZINTS: Fermi energy:   10.269797;  156.000000 electrons
         Band energy:-0.157037E+04;  BLOECHL correction:   -0.020370

 total amount of memory used by VASP MPI-rank0   185523. kBytes
=======================================================================

   base      :      30000. kBytes
   nonl-proj :     100657. kBytes
   fftplans  :        888. kBytes
   grid      :       6813. kBytes
   one-center:        373. kBytes
   wavefun   :      46792. kBytes
 
  
  
 General timing and accounting informations for this job:
 ========================================================
  
                  Total CPU time used (sec):      253.228
                            User time (sec):      244.501
                          System time (sec):        8.727
                         Elapsed time (sec):      263.084
  
                   Maximum memory used (kb):      878816.
                   Average memory used (kb):          N/A
  
                          Minor page faults:       192430
                          Major page faults:          205
                 Voluntary context switches:         9326
