       N       E                     dE             d eps       ncg     rms          ort
DAV:   1     0.176647663340E+04    0.17665E+04   -0.91296E+04 10752   0.201E+03
DAV:   2     0.641658641054E+01   -0.17601E+04   -0.16676E+04 10752   0.483E+02
DAV:   3    -0.102461661277E+03   -0.10888E+03   -0.10729E+03 10752   0.128E+02
DAV:   4    -0.103995626287E+03   -0.15340E+01   -0.15336E+01 10752   0.153E+01
DAV:   5    -0.104023809199E+03   -0.28183E-01   -0.28182E-01 10752   0.202E+00
SDA:   6    -0.593280266303E+02    0.44696E+02   -0.28182E-01 10752   0.215E+03 0.000E+00
CGA:   7    -0.870344280195E+02   -0.27706E+02   -0.27470E+02 10752   0.164E+02-0.177E+00
CGA:   8    -0.905680099622E+02   -0.35336E+01   -0.35336E+01 10752   0.413E+02-0.686E-02
CGA:   9    -0.914964540413E+02   -0.92844E+00   -0.73802E+00 10752   0.483E+01 0.110E+02
CGA:  10    -0.916666548422E+02   -0.17020E+00   -0.18234E+00 10752   0.567E+01-0.361E+00
CGA:  11    -0.922813399876E+02   -0.61469E+00   -0.61187E+00 10752   0.236E+02 0.312E-01
CGA:  12    -0.926623190873E+02   -0.38098E+00   -0.24772E+00 10752   0.119E+02 0.137E+02
CGA:  13    -0.929060715030E+02   -0.24375E+00   -0.24379E+00 10752   0.787E+00-0.441E-03
CGA:  14    -0.930255819929E+02   -0.11951E+00   -0.11959E+00 10752   0.667E+00 0.362E-02
CGA:  15    -0.931125165038E+02   -0.86935E-01   -0.87183E-01 10752   0.326E+00 0.213E-02
CGA:  16    -0.931524130318E+02   -0.39897E-01   -0.40150E-01 10752   0.749E+00 0.140E-02
CGA:  17    -0.931854337237E+02   -0.33021E-01   -0.34281E-01 10752   0.191E+00-0.210E-01
CGA:  18    -0.932054095676E+02   -0.19976E-01   -0.20102E-01 10752   0.149E+00 0.570E-03
CGA:  19    -0.932249873270E+02   -0.19578E-01   -0.19626E-01 10752   0.183E+00 0.129E-02
CGA:  20    -0.932308971930E+02   -0.59099E-02   -0.60748E-02 10752   0.260E-01-0.346E-02
CGA:  21    -0.932403274147E+02   -0.94302E-02   -0.93241E-02 10752   0.105E+00 0.481E-03
CGA:  22    -0.932440518150E+02   -0.37244E-02   -0.37867E-02 10752   0.155E-01-0.124E-02
CGA:  23    -0.932476465482E+02   -0.35947E-02   -0.36141E-02 10752   0.676E-01-0.229E-03
CGA:  24    -0.932508923039E+02   -0.32458E-02   -0.32387E-02 10752   0.463E-02-0.632E-03
CGA:  25    -0.932512186028E+02   -0.32630E-03   -0.32309E-03 10752   0.523E-02-0.394E-04
CGA:  26    -0.932516056679E+02   -0.38707E-03   -0.38334E-03 10752   0.291E-02-0.584E-04
CGA:  27    -0.932518518050E+02   -0.24614E-03   -0.24409E-03 10752   0.144E-02-0.373E-04
CGA:  28    -0.932519115354E+02   -0.59730E-04   -0.58968E-04 10752   0.578E-03-0.737E-05
CGA:  29    -0.932519865740E+02   -0.75039E-04   -0.75026E-04 10752   0.513E-03-0.545E-05
CGA:  30    -0.932520161138E+02   -0.29540E-04   -0.29463E-04 10752   0.410E-03-0.663E-06
CGA:  31    -0.932520539361E+02   -0.37822E-04   -0.37843E-04 10752   0.342E-03 0.605E-06
CGA:  32    -0.932520906611E+02   -0.36725E-04   -0.36780E-04 10752   0.358E-03 0.283E-05
CGA:  33    -0.932521057044E+02   -0.15043E-04   -0.15240E-04 10752   0.898E-04 0.267E-05
CGA:  34    -0.932521215384E+02   -0.15834E-04   -0.15489E-04 10752   0.166E-03 0.714E-05
CGA:  35    -0.932521285919E+02   -0.70535E-05   -0.73003E-05 10752   0.228E-04 0.308E-05
CGA:  36    -0.932521305785E+02   -0.19866E-05   -0.19732E-05 10752   0.357E-04-0.247E-06
CGA:  37    -0.932521339088E+02   -0.33303E-05   -0.32880E-05 10752   0.117E-04-0.156E-05
CGA:  38    -0.932521343494E+02   -0.44064E-06   -0.42871E-06 10752   0.345E-05-0.441E-07
   1 F= -.93252134E+02 E0= -.93257053E+02  d E =-.932521E+02  mag=    24.3960
