       N       E                     dE             d eps       ncg     rms          rms(c)
DAV:   1     0.176618257422E+04    0.17662E+04   -0.83932E+04 43040   0.183E+03
DAV:   2     0.644668733283E+01   -0.17597E+04   -0.16677E+04 43008   0.483E+02
DAV:   3    -0.102534060063E+03   -0.10898E+03   -0.10739E+03 50656   0.128E+02
DAV:   4    -0.104072855234E+03   -0.15388E+01   -0.15383E+01 45984   0.153E+01
DAV:   5    -0.104101052052E+03   -0.28197E-01   -0.28196E-01 52608   0.202E+00    0.410E+01
DAV:   6    -0.995181270837E+02    0.45829E+01   -0.60762E+01 48352   0.497E+01    0.323E+01
DAV:   7    -0.962732166300E+02    0.32449E+01   -0.85663E+01 49792   0.406E+01    0.225E+01
DAV:   8    -0.937119080319E+02    0.25613E+01   -0.57643E+00 49472   0.135E+01    0.118E+01
DAV:   9    -0.953149448172E+02   -0.16030E+01   -0.25089E+01 52224   0.167E+01    0.226E+01
DAV:  10    -0.937367515269E+02    0.15782E+01   -0.15015E+01 52448   0.121E+01    0.121E+01
DAV:  11    -0.932739583454E+02    0.46279E+00   -0.44457E+00 50688   0.102E+01    0.717E+00
DAV:  12    -0.932164464422E+02    0.57512E-01   -0.56846E-01 51296   0.387E+00    0.446E+00
DAV:  13    -0.933727759305E+02   -0.15633E+00   -0.78202E-01 51712   0.689E+00    0.704E+00
DAV:  14    -0.932302066883E+02    0.14257E+00   -0.59750E-01 50656   0.492E+00    0.193E+00
DAV:  15    -0.932432306411E+02   -0.13024E-01   -0.66985E-02 50912   0.176E+00    0.963E-01
DAV:  16    -0.932520604801E+02   -0.88298E-02   -0.95571E-03 51168   0.617E-01    0.538E-01
DAV:  17    -0.932552069123E+02   -0.31464E-02   -0.38680E-03 50912   0.347E-01    0.316E-01
DAV:  18    -0.932558443216E+02   -0.63741E-03   -0.12191E-03 49568   0.227E-01    0.148E-01
DAV:  19    -0.932561597325E+02   -0.31541E-03   -0.62601E-04 51040   0.118E-01    0.137E-01
DAV:  20    -0.932561662357E+02   -0.65031E-05   -0.26452E-04 51968   0.114E-01    0.666E-02
DAV:  21    -0.932561935242E+02   -0.27289E-04   -0.17907E-04 52128   0.606E-02    0.526E-02
DAV:  22    -0.932561991796E+02   -0.56553E-05   -0.41895E-05 51392   0.427E-02    0.287E-02
DAV:  23    -0.932561953995E+02    0.37801E-05   -0.33688E-05 49920   0.261E-02    0.299E-02
DAV:  24    -0.932561963856E+02   -0.98617E-06   -0.54947E-05 41056   0.240E-02    0.545E-02
DAV:  25    -0.932561967198E+02   -0.33420E-06   -0.14681E-06 28640   0.496E-03
   1 F= -.93256197E+02 E0= -.93256197E+02  d E =0.000000E+00  mag=    24.4318
