 vasp.6.4.3 19Mar24 (build Mar 26 2024 14:05:37) complex                        
  
 executed on             LinuxIFC date 2024.12.16  08:32:26
 running  128 mpi-ranks, on    1 nodes
 distrk:  each k-point on   32 cores,    4 groups
 distr:  one band on NCORE=   1 cores,   32 groups


--------------------------------------------------------------------------------------------------------


 INCAR:
   ALGO = All
   EDIFF = 1e-06
   EDIFFG = -0.01
   ENCUT = 520
   GGA = Pe
   IBRION = 2
   ISIF = 4
   ISMEAR = 1
   ISPIN = 2
   KPAR = 4
   LCHARG = True
   LORBIT = 11
   LREAL = False
   LWAVE = False
   MAGMOM = 1*2.673 1*2.674 1*2.673 1*2.675 2*2.682 1*2.673 1*2.674 1*2.673 1*0.308 2*0.31
   NELM = 200
   NSW = 100
   PREC = Accurate
   SIGMA = 0.2

 POTCAR:    PAW_PBE Fe_pv 02Aug2007               
 POTCAR:    PAW_PBE Pt 04Feb2005                  
 -----------------------------------------------------------------------------
|                                                                             |
|           W    W    AA    RRRRR   N    N  II  N    N   GGGG   !!!           |
|           W    W   A  A   R    R  NN   N  II  NN   N  G    G  !!!           |
|           W    W  A    A  R    R  N N  N  II  N N  N  G       !!!           |
|           W WW W  AAAAAA  RRRRR   N  N N  II  N  N N  G  GGG   !            |
|           WW  WW  A    A  R   R   N   NN  II  N   NN  G    G                |
|           W    W  A    A  R    R  N    N  II  N    N   GGGG   !!!           |
|                                                                             |
|     For optimal performance we recommend to set                             |
|       NCORE = 2 up to number-of-cores-per-socket                            |
|     NCORE specifies how many cores store one orbital (NPAR=cpu/NCORE).      |
|     This setting can greatly improve the performance of VASP for DFT.       |
|     The default, NCORE=1 might be grossly inefficient on modern             |
|     multi-core architectures or massively parallel machines. Do your        |
|     own testing! More info at https://www.vasp.at/wiki/index.php/NCORE      |
|     Unfortunately you need to use the default for GW and RPA                |
|     calculations (for HF NCORE is supported but not extensively tested      |
|     yet).                                                                   |
|                                                                             |
 -----------------------------------------------------------------------------

 POTCAR:    PAW_PBE Fe_pv 02Aug2007               
   SHA256 =  5d22e414b1f82158bf2c7ecb8b97b28fd0923e48cadc1c3bf74d524558f5dd32 Fe_pv/POTCAR          
   COPYR  = (c) Copyright 02Aug2007 Georg Kresse                                                    
   COPYR  = This file is part of the software VASP. Any use, copying, and all other rights are regul
   COPYR  = If you do not have a valid VASP license, you may not use, copy or distribute this file. 
   VRHFIN =Fe:  3pd7s1                                                                              
   LEXCH  = PE                                                                                      
   EATOM  =  2457.4239 eV,  180.6156 Ry                                                             
                                                                                                    
   TITEL  = PAW_PBE Fe_pv 02Aug2007                                                                 
   LULTRA =        F    use ultrasoft PP ?                                                          
   IUNSCR =        1    unscreen: 0-lin 1-nonlin 2-no                                               
   RPACOR =    1.750    partial core radius                                                         
   POMASS =   55.847; ZVAL   =   14.000    mass and valenz                                          
   RCORE  =    2.200    outmost cutoff radius                                                       
   RWIGS  =    2.200; RWIGS  =    1.164    wigner-seitz radius (au A)                               
   ENMAX  =  293.238; ENMIN  =  219.928 eV                                                          
   ICORE  =        3    local potential                                                             
   LCOR   =        T    correct aug charges                                                         
   LPAW   =        T    paw PP                                                                      
   EAUG   =  578.342                                                                                
   DEXC   =    0.000                                                                                
   RMAX   =    2.249    core radius for proj-oper                                                   
   RAUG   =    1.300    factor for augmentation sphere                                              
   RDEP   =    2.296    radius for radial grids                                                     
   RDEPT  =    1.766    core radius for aug-charge                                                  
                                                                                                    
   Atomic configuration                                                                             
    8 entries                                                                                       
     n  l   j            E        occ.                                                              
     1  0  0.50     -6993.8440   2.0000                                                             
     2  0  0.50      -814.6047   2.0000                                                             
     2  1  1.50      -693.3689   6.0000                                                             
     3  0  0.50       -89.4732   2.0000                                                             
     3  1  1.50       -55.6373   6.0000                                                             
     3  2  2.50        -3.8151   7.0000                                                             
     4  0  0.50        -4.2551   1.0000                                                             
     4  3  2.50        -1.3606   0.0000                                                             
   Description                                                                                      
     l       E           TYP  RCUT    TYP  RCUT                                                     
     1    -55.6372668     23  2.000                                                                 
     1     -5.4423304     23  2.000                                                                 
     2     -3.8151096     23  2.200                                                                 
     2     -5.1756922     23  2.200                                                                 
     0     -4.2550951     23  2.200                                                                 
     0     27.2116520     23  2.200                                                                 
     3     -1.3605826     23  2.200                                                                 
  local pseudopotential read in
  partial core-charges read in
  partial kinetic energy density read in
  atomic valenz-charges read in
  non local Contribution for L=           1  read in
    real space projection operators read in
  non local Contribution for L=           1  read in
    real space projection operators read in
  non local Contribution for L=           2  read in
    real space projection operators read in
  non local Contribution for L=           2  read in
    real space projection operators read in
  non local Contribution for L=           0  read in
    real space projection operators read in
  non local Contribution for L=           0  read in
    real space projection operators read in
    PAW grid and wavefunctions read in
 
   number of l-projection  operators is LMAX  =           6
   number of lm-projection operators is LMMAX =          18
 
 POTCAR:    PAW_PBE Pt 04Feb2005                  
   SHA256 =  3ed90460adef76debcff1cfb73ee1349b515b1a3db03439735b44de3a8db7dc8 Pt/POTCAR             
   COPYR  = (c) Copyright 04Feb2005 Georg Kresse                                                    
   COPYR  = This file is part of the software VASP. Any use, copying, and all other rights are regul
   COPYR  = If you do not have a valid VASP license, you may not use, copy or distribute this file. 
   VRHFIN =Pt: s1d9                                                                                 
   LEXCH  = PE                                                                                      
   EATOM  =   729.1176 eV,   53.5886 Ry                                                             
                                                                                                    
   TITEL  = PAW_PBE Pt 04Feb2005                                                                    
   LULTRA =        F    use ultrasoft PP ?                                                          
   IUNSCR =        1    unscreen: 0-lin 1-nonlin 2-no                                               
   RPACOR =    2.330    partial core radius                                                         
   POMASS =  195.080; ZVAL   =   10.000    mass and valenz                                          
   RCORE  =    2.600    outmost cutoff radius                                                       
   RWIGS  =    2.750; RWIGS  =    1.455    wigner-seitz radius (au A)                               
   ENMAX  =  230.283; ENMIN  =  172.712 eV                                                          
   ICORE  =        3    local potential                                                             
   LCOR   =        T    correct aug charges                                                         
   LPAW   =        T    paw PP                                                                      
   EAUG   =  358.966                                                                                
   DEXC   =    0.000                                                                                
   RMAX   =    2.658    core radius for proj-oper                                                   
   RAUG   =    1.300    factor for augmentation sphere                                              
   RDEP   =    2.761    radius for radial grids                                                     
   RDEPT  =    2.203    core radius for aug-charge                                                  
                                                                                                    
   Atomic configuration                                                                             
   16 entries                                                                                       
     n  l   j            E        occ.                                                              
     1  0  0.50    -78401.1885   2.0000                                                             
     2  0  0.50    -13770.7750   2.0000                                                             
     2  1  1.50    -11931.0468   6.0000                                                             
     3  0  0.50     -3234.7234   2.0000                                                             
     3  1  1.50     -2699.2216   6.0000                                                             
     3  2  2.50     -2119.5714  10.0000                                                             
     4  0  0.50      -695.1528   2.0000                                                             
     4  1  1.50      -519.6034   6.0000                                                             
     4  2  2.50      -306.6786  10.0000                                                             
     4  3  3.50       -70.1041  14.0000                                                             
     5  0  0.50      -101.7747   2.0000                                                             
     5  1  1.50       -55.9873   6.0000                                                             
     5  2  2.50        -6.1423   9.0000                                                             
     6  0  0.50        -5.6573   1.0000                                                             
     6  1  1.50        -6.8029   0.0000                                                             
     5  3  2.50        -1.3606   0.0000                                                             
   Description                                                                                      
     l       E           TYP  RCUT    TYP  RCUT                                                     
     2     -6.1423404     23  2.500                                                                 
     2     -7.5029230     23  2.500                                                                 
     0     -5.6573207     23  2.500                                                                 
     0      0.7416693     23  2.500                                                                 
     1     -2.7211652     23  2.600                                                                 
     1     20.4087390     23  2.600                                                                 
     3     -1.3605826     23  2.500                                                                 
  local pseudopotential read in
  partial core-charges read in
  partial kinetic energy density read in
  atomic valenz-charges read in
  non local Contribution for L=           2  read in
    real space projection operators read in
  non local Contribution for L=           2  read in
    real space projection operators read in
  non local Contribution for L=           0  read in
    real space projection operators read in
  non local Contribution for L=           0  read in
    real space projection operators read in
  non local Contribution for L=           1  read in
    real space projection operators read in
  non local Contribution for L=           1  read in
    real space projection operators read in
    PAW grid and wavefunctions read in
 
   number of l-projection  operators is LMAX  =           6
   number of lm-projection operators is LMMAX =          18
 
  PAW_PBE Fe_pv 02Aug2007               :
 energy of atom  1       EATOM=-2457.4239
 kinetic energy error for atom=    0.0062 (will be added to EATOM!!)
  PAW_PBE Pt 04Feb2005                  :
 energy of atom  2       EATOM= -729.1176
 kinetic energy error for atom=    0.0032 (will be added to EATOM!!)
 
 
 POSCAR: Fe9 Pt3
  positions in direct lattice
  No initial velocities read in


 exchange-correlation table for PE
   RHO(1)=    0.500       N(1)  =     2000
   RHO(2)=  100.500       N(2)  =     4000
 


--------------------------------------------------------------------------------------------------------


 ion  position               nearest neighbor table
   1  0.000  0.500  0.167-   7 2.59   7 2.59   7 2.59   7 2.59  10 2.59   4 2.59  10 2.59   4 2.59
                             5 2.59   5 2.59  11 2.59  11 2.59
   2  0.000  0.500  0.500-   8 2.59   8 2.59   8 2.59   8 2.59  11 2.59  12 2.59  12 2.59  11 2.59
                             5 2.59   6 2.59   5 2.59   6 2.59
   3  0.000  0.500  0.833-   9 2.59   9 2.59   9 2.59   9 2.59  10 2.59   4 2.59  10 2.59   4 2.59
                             6 2.59   6 2.59  12 2.59  12 2.59
   4  0.500  0.500  0.000-  10 2.59  10 2.59  10 2.59  10 2.59   1 2.59   7 2.59   9 2.59   3 2.59
                             1 2.59   3 2.59   7 2.59   9 2.59
   5  0.500  0.500  0.333-  11 2.59  11 2.59  11 2.59  11 2.59   7 2.59   1 2.59   1 2.59   7 2.59
                             8 2.59   2 2.59   8 2.59   2 2.59
   6  0.500  0.500  0.667-  12 2.59  12 2.59  12 2.59  12 2.59   9 2.59   3 2.59   3 2.59   9 2.59
                             2 2.59   8 2.59   2 2.59   8 2.59
   7  0.500  0.000  0.167-   1 2.59   1 2.59   1 2.59   1 2.59   4 2.59  10 2.59  10 2.59   4 2.59
                             5 2.59   5 2.59  11 2.59  11 2.59
   8  0.500  0.000  0.500-   2 2.59   2 2.59   2 2.59   2 2.59  12 2.59  11 2.59  12 2.59  11 2.59
                             6 2.59   5 2.59   5 2.59   6 2.59
   9  0.500  0.000  0.833-   3 2.59   3 2.59   3 2.59   3 2.59   4 2.59  10 2.59  10 2.59   4 2.59
                             6 2.59   6 2.59  12 2.59  12 2.59
  10  0.000  0.000  0.000-   4 2.59   4 2.59   4 2.59   4 2.59   9 2.59   1 2.59   3 2.59   3 2.59
                             1 2.59   7 2.59   9 2.59   7 2.59
  11  0.000  0.000  0.333-   5 2.59   5 2.59   5 2.59   5 2.59   2 2.59   8 2.59   8 2.59   2 2.59
                             1 2.59   7 2.59   7 2.59   1 2.59
  12  0.000  0.000  0.667-   6 2.59   6 2.59   6 2.59   6 2.59   2 2.59   8 2.59   8 2.59   2 2.59
                             3 2.59   3 2.59   9 2.59   9 2.59
 
  LATTYP: Found a simple tetragonal cell.
 ALAT       =     3.6664714472
 C/A-ratio  =     3.0027335306
  
  Lattice vectors:
  
 A1 = (   3.6664714472,   0.0000000000,   0.0000000000)
 A2 = (   0.0000000000,   3.6664714472,   0.0000000000)
 A3 = (   0.0000000000,   0.0000000000,  11.0094367535)


Analysis of symmetry for initial positions (statically):
=====================================================================
 Subroutine PRICEL returns:
 Original cell was already a primitive cell.
 

 Routine SETGRP: Setting up the symmetry group for a 
 simple tetragonal supercell.


 Subroutine GETGRP returns: Found 16 space group operations
 (whereof 16 operations were pure point group operations)
 out of a pool of 16 trial point group operations.


The static configuration has the point symmetry D_4h.


Analysis of symmetry for dynamics (positions and initial velocities):
=====================================================================
 Subroutine PRICEL returns:
 Original cell was already a primitive cell.
 

 Routine SETGRP: Setting up the symmetry group for a 
 simple tetragonal supercell.


 Subroutine GETGRP returns: Found 16 space group operations
 (whereof 16 operations were pure point group operations)
 out of a pool of 16 trial point group operations.


The dynamic configuration has the point symmetry D_4h.


Analysis of structural, dynamic, and magnetic symmetry:
=====================================================================
 Subroutine PRICEL returns:
 Original cell was already a primitive cell.
 

 Routine SETGRP: Setting up the symmetry group for a 
 simple tetragonal supercell.


 Subroutine GETGRP returns: Found 16 space group operations
 (whereof 16 operations were pure point group operations)
 out of a pool of 16 trial point group operations.


The overall configuration has the point symmetry D_4h.


 Subroutine INISYM returns: Found 16 space group operations
 (whereof 16 operations are pure point group operations),
 and found     1 'primitive' translations


----------------------------------------------------------------------------------------

                                     Primitive cell                                     

  volume of cell :     148.0000

  direct lattice vectors                    reciprocal lattice vectors
     3.666471447  0.000000000  0.000000000     0.272741794  0.000000000  0.000000000
     0.000000000  3.666471447  0.000000000     0.000000000  0.272741794  0.000000000
     0.000000000  0.000000000 11.009436753     0.000000000  0.000000000  0.090831168

  length of vectors
     3.666471447  3.666471447 11.009436753     0.272741794  0.272741794  0.090831168

  position of ions in fractional coordinates (direct lattice)
     0.000000000  0.500000000  0.166611204
     0.000000000  0.500000000  0.500000000
     0.000000000  0.500000000  0.833388796
     0.500000000  0.500000000  0.000000000
     0.500000000  0.500000000  0.333261410
     0.500000000  0.500000000  0.666738590
     0.500000000  0.000000000  0.166611204
     0.500000000  0.000000000  0.500000000
     0.500000000  0.000000000  0.833388796
     0.000000000  0.000000000  0.000000000
     0.000000000  0.000000000  0.333324505
     0.000000000  0.000000000  0.666675495

  ion indices of the primitive-cell ions
   primitive index   ion index
                 1           1
                 2           2
                 3           3
                 4           4
                 5           5
                 6           6
                 7           7
                 8           8
                 9           9
                10          10
                11          11
                12          12

----------------------------------------------------------------------------------------

 
 
 KPOINTS: pymatgen with grid density = 8800 / numb

Automatic generation of k-mesh.
 Grid dimensions read from file:
 generate k-points for:   13   13    4

 Generating k-lattice:

  Cartesian coordinates                     Fractional coordinates (reciprocal lattice)
     0.020980138  0.000000000  0.000000000     0.076923077  0.000000000  0.000000000
     0.000000000  0.020980138  0.000000000     0.000000000  0.076923077  0.000000000
     0.000000000  0.000000000  0.022707792     0.000000000  0.000000000  0.250000000

  Length of vectors
     0.020980138  0.020980138  0.022707792

  Shift w.r.t. Gamma in fractional coordinates (k-lattice)
     0.000000000  0.000000000  0.000000000

 
 Subroutine IBZKPT returns following result:
 ===========================================
 
 Found     84 irreducible k-points:
 
 Following reciprocal coordinates:
            Coordinates               Weight
  0.000000  0.000000  0.000000      1.000000
  0.076923  0.000000  0.000000      4.000000
  0.153846  0.000000  0.000000      4.000000
  0.230769  0.000000  0.000000      4.000000
  0.307692  0.000000  0.000000      4.000000
  0.384615  0.000000  0.000000      4.000000
  0.461538  0.000000  0.000000      4.000000
  0.076923  0.076923  0.000000      4.000000
  0.153846  0.076923  0.000000      8.000000
  0.230769  0.076923  0.000000      8.000000
  0.307692  0.076923  0.000000      8.000000
  0.384615  0.076923  0.000000      8.000000
  0.461538  0.076923  0.000000      8.000000
  0.153846  0.153846  0.000000      4.000000
  0.230769  0.153846  0.000000      8.000000
  0.307692  0.153846  0.000000      8.000000
  0.384615  0.153846  0.000000      8.000000
  0.461538  0.153846  0.000000      8.000000
  0.230769  0.230769  0.000000      4.000000
  0.307692  0.230769  0.000000      8.000000
  0.384615  0.230769  0.000000      8.000000
  0.461538  0.230769  0.000000      8.000000
  0.307692  0.307692  0.000000      4.000000
  0.384615  0.307692  0.000000      8.000000
  0.461538  0.307692  0.000000      8.000000
  0.384615  0.384615  0.000000      4.000000
  0.461538  0.384615  0.000000      8.000000
  0.461538  0.461538  0.000000      4.000000
  0.000000  0.000000  0.250000      2.000000
  0.076923  0.000000  0.250000      8.000000
  0.153846  0.000000  0.250000      8.000000
  0.230769  0.000000  0.250000      8.000000
  0.307692  0.000000  0.250000      8.000000
  0.384615  0.000000  0.250000      8.000000
  0.461538  0.000000  0.250000      8.000000
  0.076923  0.076923  0.250000      8.000000
  0.153846  0.076923  0.250000     16.000000
  0.230769  0.076923  0.250000     16.000000
  0.307692  0.076923  0.250000     16.000000
  0.384615  0.076923  0.250000     16.000000
  0.461538  0.076923  0.250000     16.000000
  0.153846  0.153846  0.250000      8.000000
  0.230769  0.153846  0.250000     16.000000
  0.307692  0.153846  0.250000     16.000000
  0.384615  0.153846  0.250000     16.000000
  0.461538  0.153846  0.250000     16.000000
  0.230769  0.230769  0.250000      8.000000
  0.307692  0.230769  0.250000     16.000000
  0.384615  0.230769  0.250000     16.000000
  0.461538  0.230769  0.250000     16.000000
  0.307692  0.307692  0.250000      8.000000
  0.384615  0.307692  0.250000     16.000000
  0.461538  0.307692  0.250000     16.000000
  0.384615  0.384615  0.250000      8.000000
  0.461538  0.384615  0.250000     16.000000
  0.461538  0.461538  0.250000      8.000000
  0.000000  0.000000  0.500000      1.000000
  0.076923  0.000000  0.500000      4.000000
  0.153846  0.000000  0.500000      4.000000
  0.230769  0.000000  0.500000      4.000000
  0.307692  0.000000  0.500000      4.000000
  0.384615  0.000000  0.500000      4.000000
  0.461538  0.000000  0.500000      4.000000
  0.076923  0.076923  0.500000      4.000000
  0.153846  0.076923  0.500000      8.000000
  0.230769  0.076923  0.500000      8.000000
  0.307692  0.076923  0.500000      8.000000
  0.384615  0.076923  0.500000      8.000000
  0.461538  0.076923  0.500000      8.000000
  0.153846  0.153846  0.500000      4.000000
  0.230769  0.153846  0.500000      8.000000
  0.307692  0.153846  0.500000      8.000000
  0.384615  0.153846  0.500000      8.000000
  0.461538  0.153846  0.500000      8.000000
  0.230769  0.230769  0.500000      4.000000
  0.307692  0.230769  0.500000      8.000000
  0.384615  0.230769  0.500000      8.000000
  0.461538  0.230769  0.500000      8.000000
  0.307692  0.307692  0.500000      4.000000
  0.384615  0.307692  0.500000      8.000000
  0.461538  0.307692  0.500000      8.000000
  0.384615  0.384615  0.500000      4.000000
  0.461538  0.384615  0.500000      8.000000
  0.461538  0.461538  0.500000      4.000000
 
 Following cartesian coordinates:
            Coordinates               Weight
  0.000000  0.000000  0.000000      1.000000
  0.020980  0.000000  0.000000      4.000000
  0.041960  0.000000  0.000000      4.000000
  0.062940  0.000000  0.000000      4.000000
  0.083921  0.000000  0.000000      4.000000
  0.104901  0.000000  0.000000      4.000000
  0.125881  0.000000  0.000000      4.000000
  0.020980  0.020980  0.000000      4.000000
  0.041960  0.020980  0.000000      8.000000
  0.062940  0.020980  0.000000      8.000000
  0.083921  0.020980  0.000000      8.000000
  0.104901  0.020980  0.000000      8.000000
  0.125881  0.020980  0.000000      8.000000
  0.041960  0.041960  0.000000      4.000000
  0.062940  0.041960  0.000000      8.000000
  0.083921  0.041960  0.000000      8.000000
  0.104901  0.041960  0.000000      8.000000
  0.125881  0.041960  0.000000      8.000000
  0.062940  0.062940  0.000000      4.000000
  0.083921  0.062940  0.000000      8.000000
  0.104901  0.062940  0.000000      8.000000
  0.125881  0.062940  0.000000      8.000000
  0.083921  0.083921  0.000000      4.000000
  0.104901  0.083921  0.000000      8.000000
  0.125881  0.083921  0.000000      8.000000
  0.104901  0.104901  0.000000      4.000000
  0.125881  0.104901  0.000000      8.000000
  0.125881  0.125881  0.000000      4.000000
  0.000000  0.000000  0.022708      2.000000
  0.020980  0.000000  0.022708      8.000000
  0.041960  0.000000  0.022708      8.000000
  0.062940  0.000000  0.022708      8.000000
  0.083921  0.000000  0.022708      8.000000
  0.104901  0.000000  0.022708      8.000000
  0.125881  0.000000  0.022708      8.000000
  0.020980  0.020980  0.022708      8.000000
  0.041960  0.020980  0.022708     16.000000
  0.062940  0.020980  0.022708     16.000000
  0.083921  0.020980  0.022708     16.000000
  0.104901  0.020980  0.022708     16.000000
  0.125881  0.020980  0.022708     16.000000
  0.041960  0.041960  0.022708      8.000000
  0.062940  0.041960  0.022708     16.000000
  0.083921  0.041960  0.022708     16.000000
  0.104901  0.041960  0.022708     16.000000
  0.125881  0.041960  0.022708     16.000000
  0.062940  0.062940  0.022708      8.000000
  0.083921  0.062940  0.022708     16.000000
  0.104901  0.062940  0.022708     16.000000
  0.125881  0.062940  0.022708     16.000000
  0.083921  0.083921  0.022708      8.000000
  0.104901  0.083921  0.022708     16.000000
  0.125881  0.083921  0.022708     16.000000
  0.104901  0.104901  0.022708      8.000000
  0.125881  0.104901  0.022708     16.000000
  0.125881  0.125881  0.022708      8.000000
  0.000000  0.000000  0.045416      1.000000
  0.020980  0.000000  0.045416      4.000000
  0.041960  0.000000  0.045416      4.000000
  0.062940  0.000000  0.045416      4.000000
  0.083921  0.000000  0.045416      4.000000
  0.104901  0.000000  0.045416      4.000000
  0.125881  0.000000  0.045416      4.000000
  0.020980  0.020980  0.045416      4.000000
  0.041960  0.020980  0.045416      8.000000
  0.062940  0.020980  0.045416      8.000000
  0.083921  0.020980  0.045416      8.000000
  0.104901  0.020980  0.045416      8.000000
  0.125881  0.020980  0.045416      8.000000
  0.041960  0.041960  0.045416      4.000000
  0.062940  0.041960  0.045416      8.000000
  0.083921  0.041960  0.045416      8.000000
  0.104901  0.041960  0.045416      8.000000
  0.125881  0.041960  0.045416      8.000000
  0.062940  0.062940  0.045416      4.000000
  0.083921  0.062940  0.045416      8.000000
  0.104901  0.062940  0.045416      8.000000
  0.125881  0.062940  0.045416      8.000000
  0.083921  0.083921  0.045416      4.000000
  0.104901  0.083921  0.045416      8.000000
  0.125881  0.083921  0.045416      8.000000
  0.104901  0.104901  0.045416      4.000000
  0.125881  0.104901  0.045416      8.000000
  0.125881  0.125881  0.045416      4.000000
 


--------------------------------------------------------------------------------------------------------




 Dimension of arrays:
   k-points           NKPTS =     84   k-points in BZ     NKDIM =     84   number of bands    NBANDS=    128
   number of dos      NEDOS =    301   number of ions     NIONS =     12
   non local maximal  LDIM  =      6   non local SUM 2l+1 LMDIM =     18
   total plane-waves  NPLWV =  65856
   max r-space proj   IRMAX =      1   max aug-charges    IRDMAX=  27147
   dimension x,y,z NGX =    28 NGY =   28 NGZ =   84
   dimension x,y,z NGXF=    56 NGYF=   56 NGZF=  168
   support grid    NGXF=    56 NGYF=   56 NGZF=  168
   ions per type =               9   3
   NGX,Y,Z   is equivalent  to a cutoff of  12.70, 12.70, 12.68 a.u.
   NGXF,Y,Z  is equivalent  to a cutoff of  25.39, 25.39, 25.37 a.u.

 SYSTEM =  unknown system                          
 POSCAR =  Fe9 Pt3                                 

 Startparameter for this run:
   NWRITE =      2    write-flag & timer
   PREC   = accura    normal or accurate (medium, high low for compatibility)
   ISTART =      0    job   : 0-new  1-cont  2-samecut
   ICHARG =      2    charge: 1-file 2-atom 10-const
   ISPIN  =      2    spin polarized calculation?
   LNONCOLLINEAR =      F non collinear calculations
   LSORBIT =      F    spin-orbit coupling
   INIWAV =      1    electr: 0-lowe 1-rand  2-diag
   LASPH  =      F    aspherical Exc in radial PAW
 Electronic Relaxation 1
   ENCUT  =  520.0 eV  38.22 Ry    6.18 a.u.   6.82  6.82 20.47*2*pi/ulx,y,z
   ENINI  =  520.0     initial cutoff
   ENAUG  =  578.3 eV  augmentation charge cutoff
   NELM   =    200;   NELMIN=  2; NELMDL=  0     # of ELM steps 
   EDIFF  = 0.1E-05   stopping-criterion for ELM
   LREAL  =      F    real-space projection
   NLSPLINE    = F    spline interpolate recip. space projectors
   LCOMPAT=      F    compatible to vasp.4.4
   GGA_COMPAT  = T    GGA compatible to vasp.4.4-vasp.4.6
   LMAXPAW     = -100 max onsite density
   LMAXMIX     =    2 max onsite mixed and CHGCAR
   VOSKOWN=      0    Vosko Wilk Nusair interpolation
   ROPT   =    0.00000   0.00000
 Ionic relaxation
   EDIFFG = -.1E-01   stopping-criterion for IOM
   NSW    =    100    number of steps for IOM
   NBLOCK =      1;   KBLOCK =    100    inner block; outer block 
   IBRION =      2    ionic relax: 0-MD 1-quasi-New 2-CG
   NFREE  =      1    steps in history (QN), initial steepest desc. (CG)
   ISIF   =      4    stress and relaxation
   IWAVPR =     11    prediction:  0-non 1-charg 2-wave 3-comb
   ISYM   =      2    0-nonsym 1-usesym 2-fastsym
   LCORR  =      T    Harris-Foulkes like correction to forces

   POTIM  = 0.5000    time-step for ionic-motion
   TEIN   =    0.0    initial temperature
   TEBEG  =    0.0;   TEEND  =   0.0 temperature during run
   SMASS  =  -3.00    Nose mass-parameter (am)
   estimated Nose-frequenzy (Omega)   =  0.10E-29 period in steps = 0.13E+47 mass=  -0.307E-27a.u.
   SCALEE = 1.0000    scale energy and forces
   NPACO  =    256;   APACO  = 10.0  distance and # of slots for P.C.
   PSTRESS=    0.0 pullay stress

  Mass of Ions in am
   POMASS =  55.85195.08
  Ionic Valenz
   ZVAL   =  14.00 10.00
  Atomic Wigner-Seitz radii
   RWIGS  =  -1.00 -1.00
  virtual crystal weights 
   VCA    =   1.00  1.00
   NELECT =     156.0000    total number of electrons
   NUPDOWN=      -1.0000    fix difference up-down

 DOS related values:
   EMIN   =  10.00;   EMAX   =-10.00  energy-range for DOS
   EFERMI =   0.00;   METHOD = LEGACY      
   ISMEAR =     1;   SIGMA  =   0.20  broadening in eV -4-tet -1-fermi 0-gaus

 Electronic relaxation 2 (details)
   IALGO  =     58    algorithm
   LDIAG  =      T    sub-space diagonalisation (order eigenvalues)
   LSUBROT=      F    optimize rotation matrix (better conditioning)
   TURBO    =      0    0=normal 1=particle mesh
   IRESTART =      0    0=no restart 2=restart with 2 vectors
   NREBOOT  =      0    no. of reboots
   NMIN     =      0    reboot dimension
   EREF     =   0.00    reference energy to select bands
   IMIX   =      4    mixing-type and parameters
     AMIX     =   0.40;   BMIX     =  1.00
     AMIX_MAG =   1.60;   BMIX_MAG =  1.00
     AMIN     =   0.10
     WC   =   100.;   INIMIX=   1;  MIXPRE=   1;  MAXMIX= -45

 Intra band minimization:
   WEIMIN = 0.0010     energy-eigenvalue tresh-hold
   EBREAK =  0.20E-08  absolut break condition
   DEPER  =   0.30     relativ break condition  

   TIME   =   0.40     timestep for ELM

  volume/ion in A,a.u.               =      12.33        83.23
  Fermi-wavevector in a.u.,A,eV,Ry     =   1.666080  3.148434 37.767349  2.775822
  Thomas-Fermi vector in A             =   2.752338
 
 Write flags
   LWAVE        =      F    write WAVECAR
   LDOWNSAMPLE  =      F    k-point downsampling of WAVECAR
   LCHARG       =      T    write CHGCAR
   LVTOT        =      F    write LOCPOT, total local potential
   LVHAR        =      F    write LOCPOT, Hartree potential only
   WRT_POTENTIAL= false  ! write potential to hdf5 file
   LELF         =      F    write electronic localiz. function (ELF)
   LORBIT       =     11    0 simple, 1 ext, 2 COOP (PROOUT), +10 PAW based schemes


 Dipole corrections
   LMONO      =      F    monopole corrections only (constant potential shift)
   LDIPOL     =      F    correct potential (dipole corrections)
   IDIPOL     =      0    1-x, 2-y, 3-z, 4-all directions 
   EPSILON    =  1.0000000 bulk dielectric constant
   LVACPOTAV  =      F  vacuum potentials using an averaging scheme for the charge density
   VACPOTFLAT =  0.1000000 required flatness to determine vacuum potential
 Exchange correlation treatment:
   GGA     = PE    functional components
   XC_C    = 1    coefficients multiplying the functional components
   LIBXC   =     F    Libxc                    
   VOSKOWN =     0    Vosko Wilk Nusair interpolation
   LHFCALC =     F    Hartree Fock is set to
   LHFONE  =     F    Hartree Fock one center treatment
   AEXX    =    0.0000 exact exchange contribution

 Parameters of functionals:
   PE:
     No parameter
 
 Van der Waals corrections
   IVDW    =     0    specifies the selected vdW correction

 Linear response parameters
   LEPSILON=     F    determine dielectric tensor
   LRPA    =     F    only Hartree local field effects (RPA)
   LNABLA  =     F    use nabla operator in PAW spheres
   LVEL    =     F    velocity operator in full k-point grid
   CSHIFT  =0.1000    complex shift for real part using Kramers Kronig
   OMEGAMAX=  -1.0    maximum frequency
   DEG_THRESHOLD= 0.2000000E-02 threshold for treating states as degnerate
   RTIME   =   -0.100 relaxation time in fs
  (WPLASMAI=    0.000 imaginary part of plasma frequency in eV, 0.658/RTIME)
   DFIELD  = 0.0000000 0.0000000 0.0000000 field for delta impulse in time
 
  Optional k-point grid parameters
   LKPOINTS_OPT  =     F    use optional k-point grid
   KPOINTS_OPT_MODE=     1    mode for optional k-point grid
 
 Orbital magnetization related:
   ORBITALMAG=     F  switch on orbital magnetization
   LCHIMAG   =     F  perturbation theory with respect to B field
   DQ        =  0.001000  dq finite difference perturbation B field
   LLRAUG    =     F  two centre corrections for induced B field
   LBONE     =     F  B-component reconstruction in AE one-centre
   LVGVCALC  =     T  calculate vGv susceptibility
   LVGVAPPL  =     F  apply vGv susceptibility instead of pGv for G=0

 Random number generation:
   RANDOM_GENERATOR = DEFAULT
   PCG_SEED         = not used


--------------------------------------------------------------------------------------------------------


 conjugate gradient relaxation of ions
 charge density and potential will be updated during run
 spin polarized calculation
 Conjugate gradient for all bands (Freysoldt, et al. PRB 79, 241103 (2009))
 preconditioned conjugated gradient                                        
 perform sub-space diagonalisation
    before iterative eigenvector-optimisation
 modified Broyden-mixing scheme, WC =      100.0
 initial mixing is a Kerker type mixing with AMIX =  0.4000 and BMIX =      1.0000
 Hartree-type preconditioning will be used
 using additional bands           50
 reciprocal scheme for non local part
 use partial core corrections
 no Harris-corrections to forces 
 use gradient corrections 
 use of overlap-Matrix (Vanderbilt PP)
 Methfessel and Paxton  Order N= 1 SIGMA  =   0.20


--------------------------------------------------------------------------------------------------------


  energy-cutoff  :      520.00
  volume of cell :      148.00
      direct lattice vectors                 reciprocal lattice vectors
     3.666471447  0.000000000  0.000000000     0.272741794  0.000000000  0.000000000
     0.000000000  3.666471447  0.000000000     0.000000000  0.272741794  0.000000000
     0.000000000  0.000000000 11.009436753     0.000000000  0.000000000  0.090831168

  length of vectors
     3.666471447  3.666471447 11.009436753     0.272741794  0.272741794  0.090831168


 
 k-points in units of 2pi/SCALE and weight: pymatgen with grid density = 8800 / numb
   0.00000000  0.00000000  0.00000000       0.001
   0.02098014  0.00000000  0.00000000       0.006
   0.04196028  0.00000000  0.00000000       0.006
   0.06294041  0.00000000  0.00000000       0.006
   0.08392055  0.00000000  0.00000000       0.006
   0.10490069  0.00000000  0.00000000       0.006
   0.12588083  0.00000000  0.00000000       0.006
   0.02098014  0.02098014  0.00000000       0.006
   0.04196028  0.02098014  0.00000000       0.012
   0.06294041  0.02098014  0.00000000       0.012
   0.08392055  0.02098014  0.00000000       0.012
   0.10490069  0.02098014  0.00000000       0.012
   0.12588083  0.02098014  0.00000000       0.012
   0.04196028  0.04196028  0.00000000       0.006
   0.06294041  0.04196028  0.00000000       0.012
   0.08392055  0.04196028  0.00000000       0.012
   0.10490069  0.04196028  0.00000000       0.012
   0.12588083  0.04196028  0.00000000       0.012
   0.06294041  0.06294041  0.00000000       0.006
   0.08392055  0.06294041  0.00000000       0.012
   0.10490069  0.06294041  0.00000000       0.012
   0.12588083  0.06294041  0.00000000       0.012
   0.08392055  0.08392055  0.00000000       0.006
   0.10490069  0.08392055  0.00000000       0.012
   0.12588083  0.08392055  0.00000000       0.012
   0.10490069  0.10490069  0.00000000       0.006
   0.12588083  0.10490069  0.00000000       0.012
   0.12588083  0.12588083  0.00000000       0.006
   0.00000000  0.00000000  0.02270779       0.003
   0.02098014  0.00000000  0.02270779       0.012
   0.04196028  0.00000000  0.02270779       0.012
   0.06294041  0.00000000  0.02270779       0.012
   0.08392055  0.00000000  0.02270779       0.012
   0.10490069  0.00000000  0.02270779       0.012
   0.12588083  0.00000000  0.02270779       0.012
   0.02098014  0.02098014  0.02270779       0.012
   0.04196028  0.02098014  0.02270779       0.024
   0.06294041  0.02098014  0.02270779       0.024
   0.08392055  0.02098014  0.02270779       0.024
   0.10490069  0.02098014  0.02270779       0.024
   0.12588083  0.02098014  0.02270779       0.024
   0.04196028  0.04196028  0.02270779       0.012
   0.06294041  0.04196028  0.02270779       0.024
   0.08392055  0.04196028  0.02270779       0.024
   0.10490069  0.04196028  0.02270779       0.024
   0.12588083  0.04196028  0.02270779       0.024
   0.06294041  0.06294041  0.02270779       0.012
   0.08392055  0.06294041  0.02270779       0.024
   0.10490069  0.06294041  0.02270779       0.024
   0.12588083  0.06294041  0.02270779       0.024
   0.08392055  0.08392055  0.02270779       0.012
   0.10490069  0.08392055  0.02270779       0.024
   0.12588083  0.08392055  0.02270779       0.024
   0.10490069  0.10490069  0.02270779       0.012
   0.12588083  0.10490069  0.02270779       0.024
   0.12588083  0.12588083  0.02270779       0.012
   0.00000000  0.00000000  0.04541558       0.001
   0.02098014  0.00000000  0.04541558       0.006
   0.04196028  0.00000000  0.04541558       0.006
   0.06294041  0.00000000  0.04541558       0.006
   0.08392055  0.00000000  0.04541558       0.006
   0.10490069  0.00000000  0.04541558       0.006
   0.12588083  0.00000000  0.04541558       0.006
   0.02098014  0.02098014  0.04541558       0.006
   0.04196028  0.02098014  0.04541558       0.012
   0.06294041  0.02098014  0.04541558       0.012
   0.08392055  0.02098014  0.04541558       0.012
   0.10490069  0.02098014  0.04541558       0.012
   0.12588083  0.02098014  0.04541558       0.012
   0.04196028  0.04196028  0.04541558       0.006
   0.06294041  0.04196028  0.04541558       0.012
   0.08392055  0.04196028  0.04541558       0.012
   0.10490069  0.04196028  0.04541558       0.012
   0.12588083  0.04196028  0.04541558       0.012
   0.06294041  0.06294041  0.04541558       0.006
   0.08392055  0.06294041  0.04541558       0.012
   0.10490069  0.06294041  0.04541558       0.012
   0.12588083  0.06294041  0.04541558       0.012
   0.08392055  0.08392055  0.04541558       0.006
   0.10490069  0.08392055  0.04541558       0.012
   0.12588083  0.08392055  0.04541558       0.012
   0.10490069  0.10490069  0.04541558       0.006
   0.12588083  0.10490069  0.04541558       0.012
   0.12588083  0.12588083  0.04541558       0.006
 
 k-points in reciprocal lattice and weights: pymatgen with grid density = 8800 / numb
   0.00000000  0.00000000  0.00000000       0.001
   0.07692308  0.00000000  0.00000000       0.006
   0.15384615  0.00000000  0.00000000       0.006
   0.23076923  0.00000000  0.00000000       0.006
   0.30769231  0.00000000  0.00000000       0.006
   0.38461538  0.00000000  0.00000000       0.006
   0.46153846  0.00000000  0.00000000       0.006
   0.07692308  0.07692308  0.00000000       0.006
   0.15384615  0.07692308  0.00000000       0.012
   0.23076923  0.07692308  0.00000000       0.012
   0.30769231  0.07692308  0.00000000       0.012
   0.38461538  0.07692308  0.00000000       0.012
   0.46153846  0.07692308  0.00000000       0.012
   0.15384615  0.15384615  0.00000000       0.006
   0.23076923  0.15384615  0.00000000       0.012
   0.30769231  0.15384615  0.00000000       0.012
   0.38461538  0.15384615  0.00000000       0.012
   0.46153846  0.15384615  0.00000000       0.012
   0.23076923  0.23076923  0.00000000       0.006
   0.30769231  0.23076923  0.00000000       0.012
   0.38461538  0.23076923  0.00000000       0.012
   0.46153846  0.23076923  0.00000000       0.012
   0.30769231  0.30769231  0.00000000       0.006
   0.38461538  0.30769231  0.00000000       0.012
   0.46153846  0.30769231  0.00000000       0.012
   0.38461538  0.38461538  0.00000000       0.006
   0.46153846  0.38461538  0.00000000       0.012
   0.46153846  0.46153846  0.00000000       0.006
   0.00000000  0.00000000  0.25000000       0.003
   0.07692308  0.00000000  0.25000000       0.012
   0.15384615  0.00000000  0.25000000       0.012
   0.23076923  0.00000000  0.25000000       0.012
   0.30769231  0.00000000  0.25000000       0.012
   0.38461538  0.00000000  0.25000000       0.012
   0.46153846  0.00000000  0.25000000       0.012
   0.07692308  0.07692308  0.25000000       0.012
   0.15384615  0.07692308  0.25000000       0.024
   0.23076923  0.07692308  0.25000000       0.024
   0.30769231  0.07692308  0.25000000       0.024
   0.38461538  0.07692308  0.25000000       0.024
   0.46153846  0.07692308  0.25000000       0.024
   0.15384615  0.15384615  0.25000000       0.012
   0.23076923  0.15384615  0.25000000       0.024
   0.30769231  0.15384615  0.25000000       0.024
   0.38461538  0.15384615  0.25000000       0.024
   0.46153846  0.15384615  0.25000000       0.024
   0.23076923  0.23076923  0.25000000       0.012
   0.30769231  0.23076923  0.25000000       0.024
   0.38461538  0.23076923  0.25000000       0.024
   0.46153846  0.23076923  0.25000000       0.024
   0.30769231  0.30769231  0.25000000       0.012
   0.38461538  0.30769231  0.25000000       0.024
   0.46153846  0.30769231  0.25000000       0.024
   0.38461538  0.38461538  0.25000000       0.012
   0.46153846  0.38461538  0.25000000       0.024
   0.46153846  0.46153846  0.25000000       0.012
   0.00000000  0.00000000  0.50000000       0.001
   0.07692308  0.00000000  0.50000000       0.006
   0.15384615  0.00000000  0.50000000       0.006
   0.23076923  0.00000000  0.50000000       0.006
   0.30769231  0.00000000  0.50000000       0.006
   0.38461538  0.00000000  0.50000000       0.006
   0.46153846  0.00000000  0.50000000       0.006
   0.07692308  0.07692308  0.50000000       0.006
   0.15384615  0.07692308  0.50000000       0.012
   0.23076923  0.07692308  0.50000000       0.012
   0.30769231  0.07692308  0.50000000       0.012
   0.38461538  0.07692308  0.50000000       0.012
   0.46153846  0.07692308  0.50000000       0.012
   0.15384615  0.15384615  0.50000000       0.006
   0.23076923  0.15384615  0.50000000       0.012
   0.30769231  0.15384615  0.50000000       0.012
   0.38461538  0.15384615  0.50000000       0.012
   0.46153846  0.15384615  0.50000000       0.012
   0.23076923  0.23076923  0.50000000       0.006
   0.30769231  0.23076923  0.50000000       0.012
   0.38461538  0.23076923  0.50000000       0.012
   0.46153846  0.23076923  0.50000000       0.012
   0.30769231  0.30769231  0.50000000       0.006
   0.38461538  0.30769231  0.50000000       0.012
   0.46153846  0.30769231  0.50000000       0.012
   0.38461538  0.38461538  0.50000000       0.006
   0.46153846  0.38461538  0.50000000       0.012
   0.46153846  0.46153846  0.50000000       0.006
 
 position of ions in fractional coordinates (direct lattice) 
   0.00000000  0.50000000  0.16661120
   0.00000000  0.50000000  0.50000000
   0.00000000  0.50000000  0.83338880
   0.50000000  0.50000000  0.00000000
   0.50000000  0.50000000  0.33326141
   0.50000000  0.50000000  0.66673859
   0.50000000  0.00000000  0.16661120
   0.50000000  0.00000000  0.50000000
   0.50000000  0.00000000  0.83338880
   0.00000000  0.00000000  0.00000000
   0.00000000  0.00000000  0.33332450
   0.00000000  0.00000000  0.66667550
 
 position of ions in cartesian coordinates  (Angst):
   0.00000000  1.83323572  1.83429552
   0.00000000  1.83323572  5.50471838
   0.00000000  1.83323572  9.17514124
   1.83323572  1.83323572  0.00000000
   1.83323572  1.83323572  3.66902042
   1.83323572  1.83323572  7.34041634
   1.83323572  0.00000000  1.83429552
   1.83323572  0.00000000  5.50471838
   1.83323572  0.00000000  9.17514124
   0.00000000  0.00000000  0.00000000
   0.00000000  0.00000000  3.66971505
   0.00000000  0.00000000  7.33972170
 


--------------------------------------------------------------------------------------------------------


 k-point     1 :   0.0000 0.0000 0.0000  plane waves:    4009
 k-point     2 :   0.0769 0.0000 0.0000  plane waves:    4009
 k-point     3 :   0.1538 0.0000 0.0000  plane waves:    3985
 k-point     4 :   0.2308 0.0000 0.0000  plane waves:    3984
 k-point     5 :   0.3077 0.0000 0.0000  plane waves:    3976
 k-point     6 :   0.3846 0.0000 0.0000  plane waves:    3974
 k-point     7 :   0.4615 0.0000 0.0000  plane waves:    3964
 k-point     8 :   0.0769 0.0769 0.0000  plane waves:    3999
 k-point     9 :   0.1538 0.0769 0.0000  plane waves:    3991
 k-point    10 :   0.2308 0.0769 0.0000  plane waves:    3973
 k-point    11 :   0.3077 0.0769 0.0000  plane waves:    3986
 k-point    12 :   0.3846 0.0769 0.0000  plane waves:    3987
 k-point    13 :   0.4615 0.0769 0.0000  plane waves:    3980
 k-point    14 :   0.1538 0.1538 0.0000  plane waves:    3971
 k-point    15 :   0.2308 0.1538 0.0000  plane waves:    3980
 k-point    16 :   0.3077 0.1538 0.0000  plane waves:    3978
 k-point    17 :   0.3846 0.1538 0.0000  plane waves:    3993
 k-point    18 :   0.4615 0.1538 0.0000  plane waves:    3983
 k-point    19 :   0.2308 0.2308 0.0000  plane waves:    3978
 k-point    20 :   0.3077 0.2308 0.0000  plane waves:    3986
 k-point    21 :   0.3846 0.2308 0.0000  plane waves:    3992
 k-point    22 :   0.4615 0.2308 0.0000  plane waves:    3990
 k-point    23 :   0.3077 0.3077 0.0000  plane waves:    3976
 k-point    24 :   0.3846 0.3077 0.0000  plane waves:    3999
 k-point    25 :   0.4615 0.3077 0.0000  plane waves:    3998
 k-point    26 :   0.3846 0.3846 0.0000  plane waves:    3990
 k-point    27 :   0.4615 0.3846 0.0000  plane waves:    3988
 k-point    28 :   0.4615 0.4615 0.0000  plane waves:    4008
 k-point    29 :   0.0000 0.0000 0.2500  plane waves:    3985
 k-point    30 :   0.0769 0.0000 0.2500  plane waves:    3992
 k-point    31 :   0.1538 0.0000 0.2500  plane waves:    3980
 k-point    32 :   0.2308 0.0000 0.2500  plane waves:    3971
 k-point    33 :   0.3077 0.0000 0.2500  plane waves:    3988
 k-point    34 :   0.3846 0.0000 0.2500  plane waves:    3982
 k-point    35 :   0.4615 0.0000 0.2500  plane waves:    3988
 k-point    36 :   0.0769 0.0769 0.2500  plane waves:    3987
 k-point    37 :   0.1538 0.0769 0.2500  plane waves:    3973
 k-point    38 :   0.2308 0.0769 0.2500  plane waves:    3981
 k-point    39 :   0.3077 0.0769 0.2500  plane waves:    3986
 k-point    40 :   0.3846 0.0769 0.2500  plane waves:    3980
 k-point    41 :   0.4615 0.0769 0.2500  plane waves:    3972
 k-point    42 :   0.1538 0.1538 0.2500  plane waves:    3982
 k-point    43 :   0.2308 0.1538 0.2500  plane waves:    3977
 k-point    44 :   0.3077 0.1538 0.2500  plane waves:    3989
 k-point    45 :   0.3846 0.1538 0.2500  plane waves:    3982
 k-point    46 :   0.4615 0.1538 0.2500  plane waves:    3980
 k-point    47 :   0.2308 0.2308 0.2500  plane waves:    3975
 k-point    48 :   0.3077 0.2308 0.2500  plane waves:    3978
 k-point    49 :   0.3846 0.2308 0.2500  plane waves:    3987
 k-point    50 :   0.4615 0.2308 0.2500  plane waves:    3999
 k-point    51 :   0.3077 0.3077 0.2500  plane waves:    3986
 k-point    52 :   0.3846 0.3077 0.2500  plane waves:    3990
 k-point    53 :   0.4615 0.3077 0.2500  plane waves:    3997
 k-point    54 :   0.3846 0.3846 0.2500  plane waves:    4009
 k-point    55 :   0.4615 0.3846 0.2500  plane waves:    3999
 k-point    56 :   0.4615 0.4615 0.2500  plane waves:    4016
 k-point    57 :   0.0000 0.0000 0.5000  plane waves:    4000
 k-point    58 :   0.0769 0.0000 0.5000  plane waves:    3974
 k-point    59 :   0.1538 0.0000 0.5000  plane waves:    3968
 k-point    60 :   0.2308 0.0000 0.5000  plane waves:    3968
 k-point    61 :   0.3077 0.0000 0.5000  plane waves:    3980
 k-point    62 :   0.3846 0.0000 0.5000  plane waves:    3998
 k-point    63 :   0.4615 0.0000 0.5000  plane waves:    3992
 k-point    64 :   0.0769 0.0769 0.5000  plane waves:    3968
 k-point    65 :   0.1538 0.0769 0.5000  plane waves:    3966
 k-point    66 :   0.2308 0.0769 0.5000  plane waves:    3974
 k-point    67 :   0.3077 0.0769 0.5000  plane waves:    3988
 k-point    68 :   0.3846 0.0769 0.5000  plane waves:    3980
 k-point    69 :   0.4615 0.0769 0.5000  plane waves:    3978
 k-point    70 :   0.1538 0.1538 0.5000  plane waves:    3970
 k-point    71 :   0.2308 0.1538 0.5000  plane waves:    3978
 k-point    72 :   0.3077 0.1538 0.5000  plane waves:    3976
 k-point    73 :   0.3846 0.1538 0.5000  plane waves:    3982
 k-point    74 :   0.4615 0.1538 0.5000  plane waves:    3968
 k-point    75 :   0.2308 0.2308 0.5000  plane waves:    3982
 k-point    76 :   0.3077 0.2308 0.5000  plane waves:    3996
 k-point    77 :   0.3846 0.2308 0.5000  plane waves:    3988
 k-point    78 :   0.4615 0.2308 0.5000  plane waves:    3980
 k-point    79 :   0.3077 0.3077 0.5000  plane waves:    3976
 k-point    80 :   0.3846 0.3077 0.5000  plane waves:    3986
 k-point    81 :   0.4615 0.3077 0.5000  plane waves:    3996
 k-point    82 :   0.3846 0.3846 0.5000  plane waves:    3996
 k-point    83 :   0.4615 0.3846 0.5000  plane waves:    4004
 k-point    84 :   0.4615 0.4615 0.5000  plane waves:    3998

 maximum and minimum number of plane-waves per node :      4016     3964

 maximum number of plane-waves:      4016
 maximum index in each direction: 
   IXMAX=    6   IYMAX=    6   IZMAX=   20
   IXMIN=   -7   IYMIN=   -7   IZMIN=  -20


 serial   3D FFT for wavefunctions
 parallel 3D FFT for charge:
    minimum data exchange during FFTs selected (reduces bandwidth)


 total amount of memory used by VASP MPI-rank0   273670. kBytes
=======================================================================

   base      :      30000. kBytes
   nonl-proj :      98316. kBytes
   fftplans  :        888. kBytes
   grid      :       6813. kBytes
   one-center:        373. kBytes
   wavefun   :     137280. kBytes
 
     INWAV:  cpu time      0.0002: real time      0.0002
 Broyden mixing: mesh for mixing (old mesh)
   NGX = 13   NGY = 13   NGZ = 41
  (NGX  = 56   NGY  = 56   NGZ  =168)
  gives a total of   6929 points

 initial charge density was supplied:
 charge density of overlapping atoms calculated
 number of electron     156.0000000 magnetization      25.0070000
 charge density for first step will be calculated from the start-wavefunctions


--------------------------------------------------------------------------------------------------------


 Maximum index for augmentation-charges         1069 (set IRDMAX)


--------------------------------------------------------------------------------------------------------


 First call to EWALD:  gamma=   0.335
 Maximum number of real-space cells 4x 4x 2
 Maximum number of reciprocal cells 2x 2x 5

    FEWALD:  cpu time      0.0015: real time      0.0016


--------------------------------------- Ionic step        1  -------------------------------------------




--------------------------------------- Iteration      1(   1)  ---------------------------------------


    POTLOK:  cpu time      0.0307: real time      0.0311
    SETDIJ:  cpu time      0.0142: real time      0.0143
    TRIAL :  cpu time      5.7524: real time      5.7964
    CORREC:  cpu time      0.0035: real time      0.0035
    --------------------------------------------
      LOOP:  cpu time      5.9203: real time      5.9677

 eigenvalue-minimisations  : 43040
 total energy-change (2. order) : 0.1766477E+04  (-0.9129619E+04)
 number of electron     156.0000000 magnetization      25.0070000
 augmentation part      156.0000000 magnetization      25.0070000

 Free energy of the ion-electron system (eV)
  ---------------------------------------------------
  alpha Z        PSCENC =      1149.93330786
  Ewald energy   TEWEN  =    -18412.59496304
  -Hartree energ DENC   =     -5830.89849770
  -exchange      EXHF   =         0.00000000
  -V(xc)+E(xc)   XCENC  =       659.53877752
  PAW double counting   =     20094.04651081   -20817.98152094
  entropy T*S    EENTRO =         0.00089263
  eigenvalues    EBANDS =       620.32918193
  atomic energy  EATOM  =     24304.10294433
  ---------------------------------------------------
  free energy    TOTEN  =      1766.47663340 eV

  energy without entropy =     1766.47574077  energy(sigma->0) =     1766.47633586


--------------------------------------------------------------------------------------------------------




--------------------------------------- Iteration      1(   2)  ---------------------------------------


    TRIAL :  cpu time      5.7060: real time      5.7477
    CORREC:  cpu time      0.0024: real time      0.0024
    --------------------------------------------
      LOOP:  cpu time      5.7251: real time      5.7718

 eigenvalue-minimisations  : 43008
 total energy-change (2. order) :-0.1760060E+04  (-0.1667592E+04)
 number of electron     156.0000000 magnetization      25.0070000
 augmentation part      156.0000000 magnetization      25.0070000

 Free energy of the ion-electron system (eV)
  ---------------------------------------------------
  alpha Z        PSCENC =      1149.93330786
  Ewald energy   TEWEN  =    -18412.59496304
  -Hartree energ DENC   =     -5830.89849770
  -exchange      EXHF   =         0.00000000
  -V(xc)+E(xc)   XCENC  =       659.53877752
  PAW double counting   =     20094.04651081   -20817.98152094
  entropy T*S    EENTRO =        -0.00603633
  eigenvalues    EBANDS =     -1139.72393610
  atomic energy  EATOM  =     24304.10294433
  ---------------------------------------------------
  free energy    TOTEN  =         6.41658641 eV

  energy without entropy =        6.42262274  energy(sigma->0) =        6.41859852


--------------------------------------------------------------------------------------------------------




--------------------------------------- Iteration      1(   3)  ---------------------------------------


    TRIAL :  cpu time      7.0160: real time      7.0630
    CORREC:  cpu time      0.0025: real time      0.0025
    --------------------------------------------
      LOOP:  cpu time      7.0361: real time      7.0873

 eigenvalue-minimisations  : 50752
 total energy-change (2. order) :-0.1088782E+03  (-0.1072943E+03)
 number of electron     156.0000000 magnetization      25.0070000
 augmentation part      156.0000000 magnetization      25.0070000

 Free energy of the ion-electron system (eV)
  ---------------------------------------------------
  alpha Z        PSCENC =      1149.93330786
  Ewald energy   TEWEN  =    -18412.59496304
  -Hartree energ DENC   =     -5830.89849770
  -exchange      EXHF   =         0.00000000
  -V(xc)+E(xc)   XCENC  =       659.53877752
  PAW double counting   =     20094.04651081   -20817.98152094
  entropy T*S    EENTRO =        -0.02769215
  eigenvalues    EBANDS =     -1248.58052797
  atomic energy  EATOM  =     24304.10294433
  ---------------------------------------------------
  free energy    TOTEN  =      -102.46166128 eV

  energy without entropy =     -102.43396913  energy(sigma->0) =     -102.45243056


--------------------------------------------------------------------------------------------------------




--------------------------------------- Iteration      1(   4)  ---------------------------------------


    TRIAL :  cpu time      6.1422: real time      6.1860
    CORREC:  cpu time      0.0026: real time      0.0026
    --------------------------------------------
      LOOP:  cpu time      6.1619: real time      6.2100

 eigenvalue-minimisations  : 46208
 total energy-change (2. order) :-0.1533965E+01  (-0.1533621E+01)
 number of electron     156.0000000 magnetization      25.0070000
 augmentation part      156.0000000 magnetization      25.0070000

 Free energy of the ion-electron system (eV)
  ---------------------------------------------------
  alpha Z        PSCENC =      1149.93330786
  Ewald energy   TEWEN  =    -18412.59496304
  -Hartree energ DENC   =     -5830.89849770
  -exchange      EXHF   =         0.00000000
  -V(xc)+E(xc)   XCENC  =       659.53877752
  PAW double counting   =     20094.04651081   -20817.98152094
  entropy T*S    EENTRO =        -0.02789711
  eigenvalues    EBANDS =     -1250.11428802
  atomic energy  EATOM  =     24304.10294433
  ---------------------------------------------------
  free energy    TOTEN  =      -103.99562629 eV

  energy without entropy =     -103.96772918  energy(sigma->0) =     -103.98632725


--------------------------------------------------------------------------------------------------------




--------------------------------------- Iteration      1(   5)  ---------------------------------------


    TRIAL :  cpu time      7.1609: real time      7.2067
    CORREC:  cpu time      0.0025: real time      0.0026
    CHARGE:  cpu time      0.1772: real time      0.1784
    --------------------------------------------
      LOOP:  cpu time      7.3569: real time      7.4093

 eigenvalue-minimisations  : 52768
 total energy-change (2. order) :-0.2818291E-01  (-0.2818223E-01)
 number of electron     156.0000018 magnetization      19.9019833
 augmentation part       79.4082013 magnetization      14.2717810

 Free energy of the ion-electron system (eV)
  ---------------------------------------------------
  alpha Z        PSCENC =      1149.93330786
  Ewald energy   TEWEN  =    -18412.59496304
  -Hartree energ DENC   =     -5830.89849770
  -exchange      EXHF   =         0.00000000
  -V(xc)+E(xc)   XCENC  =       659.53877752
  PAW double counting   =     20094.04651081   -20817.98152094
  entropy T*S    EENTRO =        -0.02789868
  eigenvalues    EBANDS =     -1250.14246936
  atomic energy  EATOM  =     24304.10294433
  ---------------------------------------------------
  free energy    TOTEN  =      -104.02380920 eV

  energy without entropy =     -103.99591052  energy(sigma->0) =     -104.01450964


--------------------------------------------------------------------------------------------------------




--------------------------------------- Iteration      1(   6)  ---------------------------------------


    POTLOK:  cpu time      0.0219: real time      0.0221
    SETDIJ:  cpu time      0.0087: real time      0.0088
    TRIAL :  cpu time      2.6869: real time      2.7126
    CORREC:  cpu time      1.1042: real time      1.1163
    CHARGE:  cpu time      0.1663: real time      0.1672
    --------------------------------------------
      LOOP:  cpu time      4.0088: real time      4.0491

 eigenvalue-minimisations  :     0
 total energy-change (2. order) : 0.4469578E+02  (-0.2747012E+02)
 number of electron     156.0000019 magnetization      21.1457270
 augmentation part       83.4884766 magnetization      15.6722818

 Free energy of the ion-electron system (eV)
  ---------------------------------------------------
  alpha Z        PSCENC =      1149.93330786
  Ewald energy   TEWEN  =    -18412.59496304
  -Hartree energ DENC   =     -4766.63334747
  -exchange      EXHF   =         0.00000000
  -V(xc)+E(xc)   XCENC  =       614.12620166
  PAW double counting   =     21640.61284140   -22312.28746392
  entropy T*S    EENTRO =        -0.00096770
  eigenvalues    EBANDS =     -2276.55964877
  atomic energy  EATOM  =     24304.10294433
  ---------------------------------------------------
  free energy    TOTEN  =       -59.32802663 eV

  energy without entropy =      -59.32705893  energy(sigma->0) =      -59.32770406


--------------------------------------------------------------------------------------------------------




--------------------------------------- Iteration      1(   7)  ---------------------------------------


    POTLOK:  cpu time      0.0216: real time      0.0217
    SETDIJ:  cpu time      0.0075: real time      0.0075
    TRIAL :  cpu time      2.7707: real time      2.7971
    CORREC:  cpu time      1.1032: real time      1.1148
    CHARGE:  cpu time      0.1636: real time      0.1644
    --------------------------------------------
      LOOP:  cpu time      4.0840: real time      4.1275

 eigenvalue-minimisations  :     0
 total energy-change (2. order) :-0.2770640E+02  (-0.3533616E+01)
 number of electron     156.0000020 magnetization      22.0014009
 augmentation part       84.3554803 magnetization      16.4533865

 Free energy of the ion-electron system (eV)
  ---------------------------------------------------
  alpha Z        PSCENC =      1149.93330786
  Ewald energy   TEWEN  =    -18412.59496304
  -Hartree energ DENC   =     -5335.21692091
  -exchange      EXHF   =         0.00000000
  -V(xc)+E(xc)   XCENC  =       637.93925486
  PAW double counting   =     22357.18652157   -23138.11587406
  entropy T*S    EENTRO =         0.00265997
  eigenvalues    EBANDS =     -1650.26773094
  atomic energy  EATOM  =     24304.10294433
  ---------------------------------------------------
  free energy    TOTEN  =       -87.03442802 eV

  energy without entropy =      -87.03708799  energy(sigma->0) =      -87.03531468


--------------------------------------------------------------------------------------------------------




--------------------------------------- Iteration      1(   8)  ---------------------------------------


    POTLOK:  cpu time      0.0214: real time      0.0216
    SETDIJ:  cpu time      0.0081: real time      0.0081
    TRIAL :  cpu time      2.6728: real time      2.6993
    CORREC:  cpu time      1.0951: real time      1.1067
    CHARGE:  cpu time      0.1619: real time      0.1628
    --------------------------------------------
      LOOP:  cpu time      3.9771: real time      4.0218

 eigenvalue-minimisations  :     0
 total energy-change (2. order) :-0.3533582E+01  (-0.7380233E+00)
 number of electron     156.0000020 magnetization      22.2189177
 augmentation part       84.5331869 magnetization      16.6468800

 Free energy of the ion-electron system (eV)
  ---------------------------------------------------
  alpha Z        PSCENC =      1149.93330786
  Ewald energy   TEWEN  =    -18412.59496304
  -Hartree energ DENC   =     -5429.69166441
  -exchange      EXHF   =         0.00000000
  -V(xc)+E(xc)   XCENC  =       642.69789330
  PAW double counting   =     22537.60566233   -23316.83277447
  entropy T*S    EENTRO =         0.00613861
  eigenvalues    EBANDS =     -1565.79107585
  atomic energy  EATOM  =     24304.10294433
  ---------------------------------------------------
  free energy    TOTEN  =       -90.56800996 eV

  energy without entropy =      -90.57414857  energy(sigma->0) =      -90.57005617


--------------------------------------------------------------------------------------------------------




--------------------------------------- Iteration      1(   9)  ---------------------------------------


    POTLOK:  cpu time      0.0219: real time      0.0221
    SETDIJ:  cpu time      0.0080: real time      0.0081
    TRIAL :  cpu time      2.7169: real time      2.7429
    CORREC:  cpu time      1.1698: real time      1.1820
    CHARGE:  cpu time      0.1646: real time      0.1655
    --------------------------------------------
      LOOP:  cpu time      4.0986: real time      4.1432

 eigenvalue-minimisations  :     0
 total energy-change (2. order) :-0.9284441E+00  (-0.1823364E+00)
 number of electron     156.0000020 magnetization      22.2987697
 augmentation part       84.5580482 magnetization      16.7128106

 Free energy of the ion-electron system (eV)
  ---------------------------------------------------
  alpha Z        PSCENC =      1149.93330786
  Ewald energy   TEWEN  =    -18412.59496304
  -Hartree energ DENC   =     -5448.20643737
  -exchange      EXHF   =         0.00000000
  -V(xc)+E(xc)   XCENC  =       643.69883993
  PAW double counting   =     22585.58112904   -23363.56402763
  entropy T*S    EENTRO =         0.00742997
  eigenvalues    EBANDS =     -1550.45338577
  atomic energy  EATOM  =     24304.10294433
  ---------------------------------------------------
  free energy    TOTEN  =       -91.49645404 eV

  energy without entropy =      -91.50388402  energy(sigma->0) =      -91.49893070


--------------------------------------------------------------------------------------------------------




--------------------------------------- Iteration      1(  10)  ---------------------------------------


    POTLOK:  cpu time      0.0220: real time      0.0222
    SETDIJ:  cpu time      0.0081: real time      0.0081
    TRIAL :  cpu time      2.6825: real time      2.7095
    CORREC:  cpu time      1.1016: real time      1.1134
    CHARGE:  cpu time      0.1579: real time      0.1588
    --------------------------------------------
      LOOP:  cpu time      3.9881: real time      4.0339

 eigenvalue-minimisations  :     0
 total energy-change (2. order) :-0.1702008E+00  (-0.6118686E+00)
 number of electron     156.0000020 magnetization      22.7858045
 augmentation part       84.6424865 magnetization      17.1091821

 Free energy of the ion-electron system (eV)
  ---------------------------------------------------
  alpha Z        PSCENC =      1149.93330786
  Ewald energy   TEWEN  =    -18412.59496304
  -Hartree energ DENC   =     -5450.99464720
  -exchange      EXHF   =         0.00000000
  -V(xc)+E(xc)   XCENC  =       643.86292693
  PAW double counting   =     22586.71171845   -23363.20900018
  entropy T*S    EENTRO =         0.01669889
  eigenvalues    EBANDS =     -1549.48637196
  atomic energy  EATOM  =     24304.10294433
  ---------------------------------------------------
  free energy    TOTEN  =       -91.66665484 eV

  energy without entropy =      -91.68335374  energy(sigma->0) =      -91.67222114


--------------------------------------------------------------------------------------------------------




--------------------------------------- Iteration      1(  11)  ---------------------------------------


    POTLOK:  cpu time      0.0216: real time      0.0218
    SETDIJ:  cpu time      0.0079: real time      0.0079
    TRIAL :  cpu time      2.6909: real time      2.7187
    CORREC:  cpu time      1.0987: real time      1.1110
    CHARGE:  cpu time      0.1577: real time      0.1586
    --------------------------------------------
      LOOP:  cpu time      3.9991: real time      4.0404

 eigenvalue-minimisations  :     0
 total energy-change (2. order) :-0.6146851E+00  (-0.2477249E+00)
 number of electron     156.0000021 magnetization      22.9661974
 augmentation part       84.6806940 magnetization      17.2579683

 Free energy of the ion-electron system (eV)
  ---------------------------------------------------
  alpha Z        PSCENC =      1149.93330786
  Ewald energy   TEWEN  =    -18412.59496304
  -Hartree energ DENC   =     -5462.01788675
  -exchange      EXHF   =         0.00000000
  -V(xc)+E(xc)   XCENC  =       644.54355166
  PAW double counting   =     22571.86091298   -23337.61223392
  entropy T*S    EENTRO =         0.02331520
  eigenvalues    EBANDS =     -1550.51367200
  atomic energy  EATOM  =     24304.10294433
  ---------------------------------------------------
  free energy    TOTEN  =       -92.28133999 eV

  energy without entropy =      -92.30465519  energy(sigma->0) =      -92.28911172


--------------------------------------------------------------------------------------------------------




--------------------------------------- Iteration      1(  12)  ---------------------------------------


    POTLOK:  cpu time      0.0217: real time      0.0219
    SETDIJ:  cpu time      0.0079: real time      0.0079
    TRIAL :  cpu time      2.7423: real time      2.7692
    CORREC:  cpu time      1.1001: real time      1.1122
    CHARGE:  cpu time      0.1569: real time      0.1578
    --------------------------------------------
      LOOP:  cpu time      4.0450: real time      4.0915

 eigenvalue-minimisations  :     0
 total energy-change (2. order) :-0.3809791E+00  (-0.2437927E+00)
 number of electron     156.0000021 magnetization      22.9842135
 augmentation part       84.6963142 magnetization      17.2739492

 Free energy of the ion-electron system (eV)
  ---------------------------------------------------
  alpha Z        PSCENC =      1149.93330786
  Ewald energy   TEWEN  =    -18412.59496304
  -Hartree energ DENC   =     -5466.86472887
  -exchange      EXHF   =         0.00000000
  -V(xc)+E(xc)   XCENC  =       644.84040964
  PAW double counting   =     22572.30241997   -23334.33036417
  entropy T*S    EENTRO =         0.02392701
  eigenvalues    EBANDS =     -1550.07466001
  atomic energy  EATOM  =     24304.10294433
  ---------------------------------------------------
  free energy    TOTEN  =       -92.66231909 eV

  energy without entropy =      -92.68624610  energy(sigma->0) =      -92.67029476


--------------------------------------------------------------------------------------------------------




--------------------------------------- Iteration      1(  13)  ---------------------------------------


    POTLOK:  cpu time      0.0213: real time      0.0215
    SETDIJ:  cpu time      0.0078: real time      0.0078
    TRIAL :  cpu time      2.7030: real time      2.7314
    CORREC:  cpu time      1.1021: real time      1.1145
    CHARGE:  cpu time      0.1576: real time      0.1585
    --------------------------------------------
      LOOP:  cpu time      4.0086: real time      4.0558

 eigenvalue-minimisations  :     0
 total energy-change (2. order) :-0.2437524E+00  (-0.1195905E+00)
 number of electron     156.0000021 magnetization      23.0960795
 augmentation part       84.7972233 magnetization      17.3782817

 Free energy of the ion-electron system (eV)
  ---------------------------------------------------
  alpha Z        PSCENC =      1149.93330786
  Ewald energy   TEWEN  =    -18412.59496304
  -Hartree energ DENC   =     -5469.22955330
  -exchange      EXHF   =         0.00000000
  -V(xc)+E(xc)   XCENC  =       644.94746041
  PAW double counting   =     22573.78508274   -23336.28443379
  entropy T*S    EENTRO =         0.02264608
  eigenvalues    EBANDS =     -1547.58984372
  atomic energy  EATOM  =     24304.10294433
  ---------------------------------------------------
  free energy    TOTEN  =       -92.90607150 eV

  energy without entropy =      -92.92871759  energy(sigma->0) =      -92.91362020


--------------------------------------------------------------------------------------------------------




--------------------------------------- Iteration      1(  14)  ---------------------------------------


    POTLOK:  cpu time      0.0215: real time      0.0218
    SETDIJ:  cpu time      0.0073: real time      0.0074
    TRIAL :  cpu time      2.7238: real time      2.7519
    CORREC:  cpu time      1.1542: real time      1.1669
    CHARGE:  cpu time      0.1560: real time      0.1570
    --------------------------------------------
      LOOP:  cpu time      4.0792: real time      4.1277

 eigenvalue-minimisations  :     0
 total energy-change (2. order) :-0.1195105E+00  (-0.8718337E-01)
 number of electron     156.0000021 magnetization      23.2800897
 augmentation part       84.8607170 magnetization      17.5373803

 Free energy of the ion-electron system (eV)
  ---------------------------------------------------
  alpha Z        PSCENC =      1149.93330786
  Ewald energy   TEWEN  =    -18412.59496304
  -Hartree energ DENC   =     -5485.40912780
  -exchange      EXHF   =         0.00000000
  -V(xc)+E(xc)   XCENC  =       645.64311847
  PAW double counting   =     22582.70605373   -23348.16368016
  entropy T*S    EENTRO =         0.02269427
  eigenvalues    EBANDS =     -1529.26588146
  atomic energy  EATOM  =     24304.10294433
  ---------------------------------------------------
  free energy    TOTEN  =       -93.02558199 eV

  energy without entropy =      -93.04827626  energy(sigma->0) =      -93.03314675


--------------------------------------------------------------------------------------------------------




--------------------------------------- Iteration      1(  15)  ---------------------------------------


    POTLOK:  cpu time      0.0216: real time      0.0218
    SETDIJ:  cpu time      0.0080: real time      0.0081
    TRIAL :  cpu time      2.7450: real time      2.7731
    CORREC:  cpu time      1.1030: real time      1.1149
    CHARGE:  cpu time      0.1562: real time      0.1571
    --------------------------------------------
      LOOP:  cpu time      4.0490: real time      4.0972

 eigenvalue-minimisations  :     0
 total energy-change (2. order) :-0.8693451E-01  (-0.4015002E-01)
 number of electron     156.0000021 magnetization      23.4603862
 augmentation part       84.8483226 magnetization      17.6887699

 Free energy of the ion-electron system (eV)
  ---------------------------------------------------
  alpha Z        PSCENC =      1149.93330786
  Ewald energy   TEWEN  =    -18412.59496304
  -Hartree energ DENC   =     -5493.29805531
  -exchange      EXHF   =         0.00000000
  -V(xc)+E(xc)   XCENC  =       646.08553420
  PAW double counting   =     22574.50935851   -23341.04784811
  entropy T*S    EENTRO =         0.02323966
  eigenvalues    EBANDS =     -1520.82548922
  atomic energy  EATOM  =     24304.10294433
  ---------------------------------------------------
  free energy    TOTEN  =       -93.11251650 eV

  energy without entropy =      -93.13575616  energy(sigma->0) =      -93.12026306


--------------------------------------------------------------------------------------------------------




--------------------------------------- Iteration      1(  16)  ---------------------------------------


    POTLOK:  cpu time      0.0209: real time      0.0211
    SETDIJ:  cpu time      0.0079: real time      0.0080
    TRIAL :  cpu time      2.7202: real time      2.7482
    CORREC:  cpu time      1.1091: real time      1.1212
    CHARGE:  cpu time      0.1570: real time      0.1579
    --------------------------------------------
      LOOP:  cpu time      4.0367: real time      4.0792

 eigenvalue-minimisations  :     0
 total energy-change (2. order) :-0.3989653E-01  (-0.3428077E-01)
 number of electron     156.0000021 magnetization      23.6318513
 augmentation part       84.8378977 magnetization      17.8382930

 Free energy of the ion-electron system (eV)
  ---------------------------------------------------
  alpha Z        PSCENC =      1149.93330786
  Ewald energy   TEWEN  =    -18412.59496304
  -Hartree energ DENC   =     -5487.40753712
  -exchange      EXHF   =         0.00000000
  -V(xc)+E(xc)   XCENC  =       646.01454515
  PAW double counting   =     22554.65385702   -23319.37545331
  entropy T*S    EENTRO =         0.02342639
  eigenvalues    EBANDS =     -1528.50235357
  atomic energy  EATOM  =     24304.10294433
  ---------------------------------------------------
  free energy    TOTEN  =       -93.15241303 eV

  energy without entropy =      -93.17583942  energy(sigma->0) =      -93.16022183


--------------------------------------------------------------------------------------------------------




--------------------------------------- Iteration      1(  17)  ---------------------------------------


    POTLOK:  cpu time      0.0213: real time      0.0215
    SETDIJ:  cpu time      0.0084: real time      0.0084
    TRIAL :  cpu time      2.7718: real time      2.8002
    CORREC:  cpu time      1.1024: real time      1.1153
    CHARGE:  cpu time      0.1531: real time      0.1541
    --------------------------------------------
      LOOP:  cpu time      4.0788: real time      4.1218

 eigenvalue-minimisations  :     0
 total energy-change (2. order) :-0.3302069E-01  (-0.2010171E-01)
 number of electron     156.0000021 magnetization      23.7658966
[...]
     61       9.7157      1.00000
     62       9.7161      1.00000
     63      10.0780      1.01780
     64      10.0962      1.02186
     65      10.1182      1.02681
     66      10.1298      1.02937
     67      10.2486      1.00497
     68      10.2650      0.98574
     69      10.2786      0.96533
     70      10.5356      0.09408
     71      10.5358      0.09393
     72      10.5693      0.02761
     73      10.5694      0.02725
     74      10.7741     -0.01596
     75      10.7741     -0.01594
     76      11.6460     -0.00000
     77      11.6460     -0.00000
     78      11.7876     -0.00000
     79      11.7879     -0.00000
     80      11.8209     -0.00000
     81      11.8212     -0.00000
     82      12.0350     -0.00000
     83      12.0358     -0.00000
     84      12.3040     -0.00000
     85      12.3477     -0.00000
     86      12.4832     -0.00000
     87      12.4957     -0.00000
     88      12.5489     -0.00000
     89      12.5818     -0.00000
     90      12.6395     -0.00000
     91      12.6421     -0.00000
     92      13.1165     -0.00000
     93      13.1181     -0.00000
     94      13.5747     -0.00000
     95      13.5758     -0.00000
     96      13.5833     -0.00000
     97      13.5851     -0.00000
     98      14.1144     -0.00000
     99      14.1154     -0.00000
    100      16.6880      0.00000
    101      18.6579      0.00000
    102      18.7262      0.00000
    103      18.7716      0.00000
    104      19.5887      0.00000
    105      19.5900      0.00000
    106      20.2940      0.00000
    107      20.2953      0.00000
    108      20.8421      0.00000
    109      20.8425      0.00000
    110      21.3517      0.00000
    111      21.3521      0.00000
    112      25.7844      0.00000
    113      25.7867      0.00000
    114      26.2359      0.00000
    115      26.2367      0.00000
    116      26.6106      0.00000
    117      26.6122      0.00000
    118      27.5176      0.00000
    119      27.5192      0.00000
    120      28.2435      0.00000
    121      28.2482      0.00000
    122      28.2961      0.00000
    123      28.7508      0.00000
    124      29.9343      0.00000
    125      29.9351      0.00000
    126      30.3436      0.00000
    127      30.3442      0.00000
    128      31.0943      0.00000


--------------------------------------------------------------------------------------------------------


 soft charge-density along one line, spin component           1
         0         1         2         3         4         5         6         7         8         9
 total charge-density along one line
 
 soft charge-density along one line, spin component           2
         0         1         2         3         4         5         6         7         8         9
 total charge-density along one line
 
 pseudopotential strength for first ion, spin component:           1
-44.531  -0.000   0.000   7.433   0.000  -0.000  -0.000   0.000
 -0.000 -44.531   0.000   0.000   7.433  -0.000  -0.000   0.000
  0.000   0.000 -44.422  -0.000  -0.000   7.389   0.000  -0.000
  7.433   0.000  -0.000   5.675   0.000  -0.000   0.000  -0.000
  0.000   7.433  -0.000   0.000   5.675  -0.000   0.000  -0.000
 -0.000  -0.000   7.389  -0.000  -0.000   5.683  -0.000   0.000
 -0.000  -0.000   0.000   0.000   0.000  -0.000  -1.683   0.000
  0.000   0.000  -0.000  -0.000  -0.000   0.000   0.000  -1.767
 -0.000   0.000   0.000   0.000  -0.000  -0.000   0.000   0.000
 -0.000  -0.000   0.000   0.000   0.000  -0.000  -0.000   0.000
 -0.000  -0.000  -0.000   0.000   0.000   0.000  -0.000   0.000
 -0.000  -0.000   0.000   0.000   0.000  -0.000  -2.203   0.000
  0.000   0.000  -0.000  -0.000  -0.000   0.000   0.000  -2.285
 -0.000   0.000   0.000   0.000  -0.000  -0.000   0.000   0.000
 -0.000  -0.000   0.000   0.000   0.000  -0.000  -0.000   0.000
 -0.000  -0.000  -0.000   0.000   0.000   0.000  -0.000   0.000
 -0.000  -0.000   0.000  -0.000  -0.000   0.000  -0.000   0.000
 -0.000  -0.000   0.000  -0.000  -0.000   0.000  -0.000   0.000
 pseudopotential strength for first ion, spin component:           2
-42.266  -0.000   0.000   6.479   0.000  -0.000  -0.000   0.000
 -0.000 -42.267   0.000   0.000   6.479  -0.000  -0.000   0.000
  0.000   0.000 -42.200  -0.000  -0.000   6.451   0.000  -0.000
  6.479   0.000  -0.000   5.940   0.000  -0.000   0.000  -0.000
  0.000   6.479  -0.000   0.000   5.940  -0.000   0.000  -0.000
 -0.000  -0.000   6.451  -0.000  -0.000   5.946  -0.000   0.000
 -0.000  -0.000   0.000   0.000   0.000  -0.000   0.110   0.000
  0.000   0.000  -0.000  -0.000  -0.000   0.000   0.000   0.071
 -0.000  -0.000  -0.000   0.000  -0.000   0.000  -0.000   0.000
 -0.000  -0.000  -0.000   0.000  -0.000  -0.000  -0.000   0.000
 -0.000  -0.000  -0.000   0.000  -0.000  -0.000   0.000   0.000
  0.000  -0.000   0.000  -0.000   0.000  -0.000  -0.439   0.000
  0.000   0.000  -0.000  -0.000  -0.000   0.000   0.000  -0.478
 -0.000  -0.000   0.000   0.000  -0.000   0.000  -0.000   0.000
 -0.000   0.000  -0.000   0.000  -0.000  -0.000  -0.000   0.000
 -0.000  -0.000   0.000   0.000  -0.000  -0.000   0.000   0.000
 -0.000  -0.000  -0.000  -0.000  -0.000   0.000  -0.000   0.000
 -0.000  -0.000   0.000  -0.000  -0.000  -0.000  -0.000   0.000
 total augmentation occupancy for first ion, spin component:           1
  1.992  -0.000   0.000  -0.025   0.000   0.000  -0.000   0.000   0.000  -0.000  -0.000   0.000  -0.000  -0.000  -0.000  -0.000
 -0.000   1.992  -0.000   0.000  -0.025   0.000   0.000   0.000   0.000   0.000  -0.000  -0.000  -0.000  -0.000  -0.000   0.000
  0.000  -0.000   1.992   0.000  -0.000  -0.025   0.000   0.000   0.000   0.000   0.000   0.000  -0.000   0.000  -0.000   0.000
 -0.025   0.000   0.000   0.197   0.000   0.000   0.000   0.000   0.000   0.000   0.000  -0.000  -0.001   0.000   0.000   0.000
  0.000  -0.025  -0.000   0.000   0.197  -0.000   0.000  -0.000   0.000  -0.000  -0.000   0.000   0.000  -0.000   0.000   0.000
  0.000   0.000  -0.025   0.000  -0.000   0.176  -0.000   0.000   0.000   0.000   0.000   0.000  -0.000   0.000  -0.000   0.000
 -0.000   0.000   0.000   0.000   0.000  -0.000   3.043   0.000  -0.000  -0.000   0.000  -1.812  -0.000   0.000   0.000   0.000
  0.000   0.000   0.000   0.000  -0.000   0.000   0.000   3.331   0.000   0.000   0.000  -0.000  -2.385   0.000   0.000   0.000
  0.000   0.000   0.000   0.000   0.000   0.000  -0.000   0.000   3.487   0.000   0.167   0.000   0.000  -2.135  -0.000  -0.087
 -0.000   0.000   0.000   0.000  -0.000   0.000  -0.000   0.000   0.000   3.056   0.000   0.000   0.000   0.000  -1.821  -0.000
 -0.000  -0.000   0.000   0.000  -0.000   0.000   0.000   0.000   0.167   0.000   3.305   0.000   0.000  -0.087   0.000  -2.042
  0.000  -0.000   0.000  -0.000   0.000   0.000  -1.812  -0.000   0.000   0.000   0.000   1.993   0.000  -0.000   0.000   0.000
 -0.000  -0.000  -0.000  -0.001   0.000  -0.000  -0.000  -2.385   0.000   0.000   0.000   0.000   2.740   0.000  -0.000  -0.000
 -0.000  -0.000   0.000   0.000  -0.000   0.000   0.000   0.000  -2.135   0.000  -0.087  -0.000   0.000   2.058  -0.000   0.014
 -0.000  -0.000  -0.000   0.000   0.000  -0.000   0.000   0.000  -0.000  -1.821   0.000   0.000  -0.000  -0.000   1.998  -0.000
 -0.000   0.000   0.000   0.000   0.000   0.000   0.000   0.000  -0.087  -0.000  -2.042   0.000  -0.000   0.014  -0.000   2.045
 -0.000   0.000   0.000   0.000  -0.000  -0.000   0.000   0.000  -0.115  -0.000   0.199   0.000   0.000   0.086   0.000  -0.150
 -0.000  -0.000  -0.000  -0.000   0.000   0.000   0.000  -0.000   0.007   0.000  -0.013  -0.000   0.000  -0.005  -0.000   0.009
 total augmentation occupancy for first ion, spin component:           2
 -0.002  -0.000   0.000  -0.009   0.000   0.000  -0.000  -0.000   0.000   0.000  -0.000   0.000   0.000  -0.000  -0.000  -0.000
 -0.000  -0.002   0.000   0.000  -0.009   0.000   0.000   0.000  -0.000   0.000   0.000  -0.000   0.000   0.000  -0.000  -0.000
  0.000   0.000  -0.002   0.000   0.000  -0.010  -0.000   0.000  -0.000  -0.000  -0.000  -0.000   0.000  -0.000   0.000   0.000
 -0.009   0.000   0.000  -0.005  -0.000   0.000   0.000   0.000   0.000   0.000   0.000   0.000  -0.000  -0.000   0.000   0.000
  0.000  -0.009   0.000  -0.000  -0.005  -0.000   0.000  -0.000   0.000   0.000  -0.000  -0.000  -0.000  -0.000  -0.000   0.000
  0.000   0.000  -0.010   0.000  -0.000  -0.010  -0.000  -0.000  -0.000   0.000   0.000  -0.000   0.000   0.000  -0.000   0.000
 -0.000   0.000  -0.000   0.000   0.000  -0.000   2.388   0.000   0.000   0.000   0.000  -1.048  -0.000   0.000   0.000   0.000
 -0.000   0.000   0.000   0.000  -0.000  -0.000   0.000   2.267  -0.000   0.000   0.000   0.000  -0.884   0.000   0.000   0.000
  0.000  -0.000  -0.000   0.000   0.000  -0.000   0.000  -0.000   2.704  -0.000   0.088  -0.000  -0.000  -1.143  -0.000  -0.091
  0.000   0.000  -0.000   0.000   0.000   0.000   0.000   0.000  -0.000   2.400  -0.000   0.000   0.000  -0.000  -1.055   0.000
 -0.000   0.000  -0.000   0.000  -0.000   0.000   0.000   0.000   0.088  -0.000   2.614  -0.000   0.000  -0.091  -0.000  -1.045
  0.000  -0.000  -0.000   0.000  -0.000  -0.000  -1.048   0.000  -0.000   0.000  -0.000   0.250   0.000  -0.000   0.000   0.000
  0.000   0.000   0.000  -0.000  -0.000   0.000  -0.000  -0.884  -0.000   0.000   0.000   0.000   0.076   0.000   0.000  -0.000
 -0.000   0.000  -0.000  -0.000  -0.000   0.000   0.000   0.000  -1.143  -0.000  -0.091  -0.000   0.000   0.334  -0.000   0.105
 -0.000  -0.000   0.000   0.000  -0.000  -0.000   0.000   0.000  -0.000  -1.055  -0.000   0.000   0.000  -0.000   0.255   0.000
 -0.000  -0.000   0.000   0.000   0.000   0.000   0.000   0.000  -0.091   0.000  -1.045   0.000  -0.000   0.105   0.000   0.217
 -0.000  -0.000  -0.000   0.000  -0.000   0.000   0.000   0.000  -0.030   0.000   0.054   0.000   0.000   0.030  -0.000  -0.054
 -0.000   0.000   0.000   0.000  -0.000   0.000   0.000   0.000   0.003   0.000  -0.005   0.000  -0.000  -0.001   0.000   0.001


------------------------ aborting loop because EDIFF is reached ----------------------------------------





 total charge

# of ion       s       p       d       tot
------------------------------------------
    1        0.362   6.356   6.060  12.778
    2        0.362   6.356   6.059  12.778
    3        0.362   6.356   6.060  12.778
    4        0.362   6.357   6.060  12.779
    5        0.362   6.356   6.059  12.778
    6        0.362   6.356   6.059  12.778
    7        0.362   6.356   6.060  12.778
    8        0.362   6.356   6.059  12.778
    9        0.362   6.356   6.060  12.778
   10        0.790   0.764   8.064   9.618
   11        0.790   0.764   8.064   9.617
   12        0.790   0.764   8.064   9.617
--------------------------------------------------
tot          5.628  59.500  78.730 143.858



 magnetization (x)

# of ion       s       p       d       tot
------------------------------------------
    1       -0.003  -0.016   2.639   2.620
    2       -0.003  -0.016   2.640   2.621
    3       -0.003  -0.016   2.639   2.620
    4       -0.003  -0.016   2.637   2.618
    5       -0.003  -0.016   2.639   2.620
    6       -0.003  -0.016   2.639   2.620
    7       -0.003  -0.016   2.639   2.620
    8       -0.003  -0.016   2.640   2.621
    9       -0.003  -0.016   2.639   2.620
   10       -0.040  -0.100   0.428   0.288
   11       -0.040  -0.100   0.428   0.288
   12       -0.040  -0.100   0.428   0.288
--------------------------------------------------
tot         -0.146  -0.441  25.033  24.446
 
    FORLOC:  cpu time      0.0009: real time      0.0010
    FORNL :  cpu time      0.7900: real time      0.7942
    STRESS:  cpu time      4.1484: real time      4.1831
    FORCOR:  cpu time      0.0204: real time      0.0206
    OFIELD:  cpu time      0.0002: real time      0.0004

  FORCE on cell =-STRESS in cart. coord.  units (eV):
  Direction    XX          YY          ZZ          XY          YZ          ZX
  --------------------------------------------------------------------------------------
  Alpha Z  1149.93331  1149.93331  1149.93331
  Ewald   -6137.19701 -6137.19701 -6138.22000    -0.00000     0.00000     0.00000
  Hartree  1831.07876  1831.07876  1830.50054    -0.00000    -0.00000    -0.00000
  E(xc)    -946.33923  -946.33923  -946.33832    -0.00000    -0.00000     0.00000
  Local    1178.70653  1178.70653  1180.24617     0.00000     0.00000    -0.00000
  n-local  -203.31751  -217.32088  -210.27442    15.82772    -0.07065    -0.04783
  augment  1437.20330  1437.20330  1437.19544     0.00000     0.00000    -0.00000
  Kinetic  1710.87060  1702.78989  1706.82108     0.92961     0.28557     0.78806
  Fock        0.00000     0.00000     0.00000     0.00000     0.00000     0.00000
  -------------------------------------------------------------------------------------
  Total       9.89671     9.89671     9.86380     0.00000     0.00000    -0.00000
  in kB     107.13704   107.13704   106.78077     0.00000     0.00000    -0.00000
  external pressure =      107.02 kB  Pullay stress =        0.00 kB


 VOLUME and BASIS-vectors are now :
 -----------------------------------------------------------------------------
  energy-cutoff  :      520.00
  volume of cell :      148.00
      direct lattice vectors                 reciprocal lattice vectors
     3.666471447  0.000000000  0.000000000     0.272741794  0.000000000  0.000000000
     0.000000000  3.666471447  0.000000000     0.000000000  0.272741794  0.000000000
     0.000000000  0.000000000 11.009436753     0.000000000  0.000000000  0.090831168

  length of vectors
     3.666471447  3.666471447 11.009436753     0.272741794  0.272741794  0.090831168


 FORCES acting on ions:
    Electron-Ion                     Ewald-Force                    Non-Local-Force
 -----------------------------------------------------------------------------------------------
   -.727E-13 0.109E-11 -.149E+01   -.226E-13 -.394E-14 0.149E+01   -.103E-20 0.755E-21 0.368E-02
   -.725E-13 0.114E-11 0.271E-11   -.264E-13 -.129E-13 0.284E-12   -.116E-23 0.125E-23 0.292E-23
   -.724E-13 0.861E-12 0.149E+01   -.182E-14 -.370E-13 -.149E+01   -.849E-21 -.699E-21 -.368E-02
   0.114E-11 0.791E-11 0.532E-11   -.100E-13 0.141E-13 -.114E-12   -.298E-25 0.627E-24 -.189E-22
   0.114E-11 -.433E-11 -.146E+01   0.101E-13 0.192E-14 0.145E+01   0.147E-21 0.219E-21 0.821E-02
   0.114E-11 -.497E-11 0.146E+01   -.525E-13 0.796E-15 -.145E+01   -.405E-21 0.181E-20 -.821E-02
   0.116E-11 -.821E-13 -.149E+01   0.919E-15 0.248E-13 0.149E+01   -.112E-20 0.808E-21 0.368E-02
   0.116E-11 -.800E-13 0.544E-11   0.163E-13 0.178E-13 0.284E-12   0.397E-24 0.298E-23 0.195E-23
   0.116E-11 -.769E-13 0.149E+01   0.475E-14 -.658E-14 -.149E+01   0.982E-21 0.738E-21 -.368E-02
   -.469E-13 -.503E-13 0.199E-12   0.157E-13 -.123E-13 0.000E+00   -.932E-23 0.439E-23 -.299E-23
   -.471E-13 -.512E-13 -.720E+00   0.345E-14 0.103E-13 0.715E+00   -.347E-20 -.116E-20 -.175E-02
   -.470E-13 -.482E-13 0.720E+00   0.423E-13 -.174E-13 -.715E+00   0.226E-20 0.231E-20 0.175E-02
 -----------------------------------------------------------------------------------------------
   0.660E-11 0.132E-11 0.320E-10   -.199E-13 -.203E-13 -.162E-12   -.350E-20 0.479E-20 -.173E-17
 
 
 POSITION                                       TOTAL-FORCE (eV/Angst)
 -----------------------------------------------------------------------------------
      0.00000      1.83324      1.83430        -0.000000      0.000000      0.004567
      0.00000      1.83324      5.50472        -0.000000      0.000000      0.000000
      0.00000      1.83324      9.17514        -0.000000     -0.000000     -0.004567
      1.83324      1.83324      0.00000         0.000000     -0.000000      0.000000
      1.83324      1.83324      3.66902         0.000000     -0.000000     -0.001113
      1.83324      1.83324      7.34042        -0.000000     -0.000000      0.001113
      1.83324      0.00000      1.83430        -0.000000      0.000000      0.004567
      1.83324      0.00000      5.50472        -0.000000      0.000000      0.000000
      1.83324      0.00000      9.17514        -0.000000      0.000000     -0.004567
      0.00000      0.00000      0.00000        -0.000000      0.000000      0.000000
      0.00000      0.00000      3.66972        -0.000000      0.000000     -0.005626
      0.00000      0.00000      7.33972        -0.000000      0.000000      0.005626
 -----------------------------------------------------------------------------------
    total drift:                                0.000000      0.000000      0.000000


--------------------------------------------------------------------------------------------------------



  FREE ENERGIE OF THE ION-ELECTRON SYSTEM (eV)
  ---------------------------------------------------
  free  energy   TOTEN  =       -93.25213435 eV

  energy  without entropy=      -93.26689165  energy(sigma->0) =      -93.25705345
 


--------------------------------------------------------------------------------------------------------


    POTLOK:  cpu time      0.0366: real time      0.0369


--------------------------------------------------------------------------------------------------------




--------------------------------------------------------------------------------------------------------


  
 reached required accuracy - stopping structural energy minimisation
     LOOP+:  cpu time    172.5275: real time    174.4132
    4ORBIT:  cpu time      0.0000: real time      0.0000



 total charge

# of ion       s       p       d       tot
------------------------------------------
    1        0.362   6.356   6.060  12.778
    2        0.362   6.356   6.059  12.778
    3        0.362   6.356   6.060  12.778
    4        0.362   6.357   6.060  12.779
    5        0.362   6.356   6.059  12.778
    6        0.362   6.356   6.059  12.778
    7        0.362   6.356   6.060  12.778
    8        0.362   6.356   6.059  12.778
    9        0.362   6.356   6.060  12.778
   10        0.790   0.764   8.064   9.618
   11        0.790   0.764   8.064   9.617
   12        0.790   0.764   8.064   9.617
--------------------------------------------------
tot          5.628  59.500  78.730 143.858



 magnetization (x)

# of ion       s       p       d       tot
------------------------------------------
    1       -0.003  -0.016   2.639   2.620
    2       -0.003  -0.016   2.640   2.621
    3       -0.003  -0.016   2.639   2.620
    4       -0.003  -0.016   2.637   2.618
    5       -0.003  -0.016   2.639   2.620
    6       -0.003  -0.016   2.639   2.620
    7       -0.003  -0.016   2.639   2.620
    8       -0.003  -0.016   2.640   2.621
    9       -0.003  -0.016   2.639   2.620
   10       -0.040  -0.100   0.428   0.288
   11       -0.040  -0.100   0.428   0.288
   12       -0.040  -0.100   0.428   0.288
--------------------------------------------------
tot         -0.146  -0.441  25.033  24.446
 

 total amount of memory used by VASP MPI-rank0   273670. kBytes
=======================================================================

   base      :      30000. kBytes
   nonl-proj :      98316. kBytes
   fftplans  :        888. kBytes
   grid      :       6813. kBytes
   one-center:        373. kBytes
   wavefun   :     137280. kBytes
 
  
  
 General timing and accounting informations for this job:
 ========================================================
  
                  Total CPU time used (sec):      191.181
                            User time (sec):      184.346
                          System time (sec):        6.836
                         Elapsed time (sec):      198.608
  
                   Maximum memory used (kb):     1118708.
                   Average memory used (kb):          N/A
  
                          Minor page faults:       145917
                          Major page faults:          170
                 Voluntary context switches:         8505
