 vasp.6.4.3 19Mar24 (build Mar 26 2024 14:05:37) complex                        
  
 executed on             LinuxIFC date 2024.12.16  08:35:57
 running  128 mpi-ranks, on    1 nodes
 distrk:  each k-point on   32 cores,    4 groups
 distr:  one band on NCORE=   1 cores,   32 groups


--------------------------------------------------------------------------------------------------------


 INCAR:
   ALGO = All
   EDIFF = 1e-06
   EDIFFG = -0.01
   ENCUT = 520
   GGA = Pe
   IBRION = 2
   ISIF = 4
   ISMEAR = 1
   ISPIN = 2
   KPAR = 4
   LCHARG = True
   LORBIT = 11
   LREAL = False
   LWAVE = False
   MAGMOM = 1*2.62 1*2.621 1*2.62 1*2.618 3*2.62 1*2.621 1*2.62 3*0.288
   NELM = 200
   NSW = 100
   PREC = Accurate
   SIGMA = 0.2

 POTCAR:    PAW_PBE Fe_pv 02Aug2007               
 POTCAR:    PAW_PBE Pt 04Feb2005                  
 -----------------------------------------------------------------------------
|                                                                             |
|           W    W    AA    RRRRR   N    N  II  N    N   GGGG   !!!           |
|           W    W   A  A   R    R  NN   N  II  NN   N  G    G  !!!           |
|           W    W  A    A  R    R  N N  N  II  N N  N  G       !!!           |
|           W WW W  AAAAAA  RRRRR   N  N N  II  N  N N  G  GGG   !            |
|           WW  WW  A    A  R   R   N   NN  II  N   NN  G    G                |
|           W    W  A    A  R    R  N    N  II  N    N   GGGG   !!!           |
|                                                                             |
|     For optimal performance we recommend to set                             |
|       NCORE = 2 up to number-of-cores-per-socket                            |
|     NCORE specifies how many cores store one orbital (NPAR=cpu/NCORE).      |
|     This setting can greatly improve the performance of VASP for DFT.       |
|     The default, NCORE=1 might be grossly inefficient on modern             |
|     multi-core architectures or massively parallel machines. Do your        |
|     own testing! More info at https://www.vasp.at/wiki/index.php/NCORE      |
|     Unfortunately you need to use the default for GW and RPA                |
|     calculations (for HF NCORE is supported but not extensively tested      |
|     yet).                                                                   |
|                                                                             |
 -----------------------------------------------------------------------------

 POTCAR:    PAW_PBE Fe_pv 02Aug2007               
   SHA256 =  5d22e414b1f82158bf2c7ecb8b97b28fd0923e48cadc1c3bf74d524558f5dd32 Fe_pv/POTCAR          
   COPYR  = (c) Copyright 02Aug2007 Georg Kresse                                                    
   COPYR  = This file is part of the software VASP. Any use, copying, and all other rights are regul
   COPYR  = If you do not have a valid VASP license, you may not use, copy or distribute this file. 
   VRHFIN =Fe:  3pd7s1                                                                              
   LEXCH  = PE                                                                                      
   EATOM  =  2457.4239 eV,  180.6156 Ry                                                             
                                                                                                    
   TITEL  = PAW_PBE Fe_pv 02Aug2007                                                                 
   LULTRA =        F    use ultrasoft PP ?                                                          
   IUNSCR =        1    unscreen: 0-lin 1-nonlin 2-no                                               
   RPACOR =    1.750    partial core radius                                                         
   POMASS =   55.847; ZVAL   =   14.000    mass and valenz                                          
   RCORE  =    2.200    outmost cutoff radius                                                       
   RWIGS  =    2.200; RWIGS  =    1.164    wigner-seitz radius (au A)                               
   ENMAX  =  293.238; ENMIN  =  219.928 eV                                                          
   ICORE  =        3    local potential                                                             
   LCOR   =        T    correct aug charges                                                         
   LPAW   =        T    paw PP                                                                      
   EAUG   =  578.342                                                                                
   DEXC   =    0.000                                                                                
   RMAX   =    2.249    core radius for proj-oper                                                   
   RAUG   =    1.300    factor for augmentation sphere                                              
   RDEP   =    2.296    radius for radial grids                                                     
   RDEPT  =    1.766    core radius for aug-charge                                                  
                                                                                                    
   Atomic configuration                                                                             
    8 entries                                                                                       
     n  l   j            E        occ.                                                              
     1  0  0.50     -6993.8440   2.0000                                                             
     2  0  0.50      -814.6047   2.0000                                                             
     2  1  1.50      -693.3689   6.0000                                                             
     3  0  0.50       -89.4732   2.0000                                                             
     3  1  1.50       -55.6373   6.0000                                                             
     3  2  2.50        -3.8151   7.0000                                                             
     4  0  0.50        -4.2551   1.0000                                                             
     4  3  2.50        -1.3606   0.0000                                                             
   Description                                                                                      
     l       E           TYP  RCUT    TYP  RCUT                                                     
     1    -55.6372668     23  2.000                                                                 
     1     -5.4423304     23  2.000                                                                 
     2     -3.8151096     23  2.200                                                                 
     2     -5.1756922     23  2.200                                                                 
     0     -4.2550951     23  2.200                                                                 
     0     27.2116520     23  2.200                                                                 
     3     -1.3605826     23  2.200                                                                 
  local pseudopotential read in
  partial core-charges read in
  partial kinetic energy density read in
  atomic valenz-charges read in
  non local Contribution for L=           1  read in
    real space projection operators read in
  non local Contribution for L=           1  read in
    real space projection operators read in
  non local Contribution for L=           2  read in
    real space projection operators read in
  non local Contribution for L=           2  read in
    real space projection operators read in
  non local Contribution for L=           0  read in
    real space projection operators read in
  non local Contribution for L=           0  read in
    real space projection operators read in
    PAW grid and wavefunctions read in
 
   number of l-projection  operators is LMAX  =           6
   number of lm-projection operators is LMMAX =          18
 
 POTCAR:    PAW_PBE Pt 04Feb2005                  
   SHA256 =  3ed90460adef76debcff1cfb73ee1349b515b1a3db03439735b44de3a8db7dc8 Pt/POTCAR             
   COPYR  = (c) Copyright 04Feb2005 Georg Kresse                                                    
   COPYR  = This file is part of the software VASP. Any use, copying, and all other rights are regul
   COPYR  = If you do not have a valid VASP license, you may not use, copy or distribute this file. 
   VRHFIN =Pt: s1d9                                                                                 
   LEXCH  = PE                                                                                      
   EATOM  =   729.1176 eV,   53.5886 Ry                                                             
                                                                                                    
   TITEL  = PAW_PBE Pt 04Feb2005                                                                    
   LULTRA =        F    use ultrasoft PP ?                                                          
   IUNSCR =        1    unscreen: 0-lin 1-nonlin 2-no                                               
   RPACOR =    2.330    partial core radius                                                         
   POMASS =  195.080; ZVAL   =   10.000    mass and valenz                                          
   RCORE  =    2.600    outmost cutoff radius                                                       
   RWIGS  =    2.750; RWIGS  =    1.455    wigner-seitz radius (au A)                               
   ENMAX  =  230.283; ENMIN  =  172.712 eV                                                          
   ICORE  =        3    local potential                                                             
   LCOR   =        T    correct aug charges                                                         
   LPAW   =        T    paw PP                                                                      
   EAUG   =  358.966                                                                                
   DEXC   =    0.000                                                                                
   RMAX   =    2.658    core radius for proj-oper                                                   
   RAUG   =    1.300    factor for augmentation sphere                                              
   RDEP   =    2.761    radius for radial grids                                                     
   RDEPT  =    2.203    core radius for aug-charge                                                  
                                                                                                    
   Atomic configuration                                                                             
   16 entries                                                                                       
     n  l   j            E        occ.                                                              
     1  0  0.50    -78401.1885   2.0000                                                             
     2  0  0.50    -13770.7750   2.0000                                                             
     2  1  1.50    -11931.0468   6.0000                                                             
     3  0  0.50     -3234.7234   2.0000                                                             
     3  1  1.50     -2699.2216   6.0000                                                             
     3  2  2.50     -2119.5714  10.0000                                                             
     4  0  0.50      -695.1528   2.0000                                                             
     4  1  1.50      -519.6034   6.0000                                                             
     4  2  2.50      -306.6786  10.0000                                                             
     4  3  3.50       -70.1041  14.0000                                                             
     5  0  0.50      -101.7747   2.0000                                                             
     5  1  1.50       -55.9873   6.0000                                                             
     5  2  2.50        -6.1423   9.0000                                                             
     6  0  0.50        -5.6573   1.0000                                                             
     6  1  1.50        -6.8029   0.0000                                                             
     5  3  2.50        -1.3606   0.0000                                                             
   Description                                                                                      
     l       E           TYP  RCUT    TYP  RCUT                                                     
     2     -6.1423404     23  2.500                                                                 
     2     -7.5029230     23  2.500                                                                 
     0     -5.6573207     23  2.500                                                                 
     0      0.7416693     23  2.500                                                                 
     1     -2.7211652     23  2.600                                                                 
     1     20.4087390     23  2.600                                                                 
     3     -1.3605826     23  2.500                                                                 
  local pseudopotential read in
  partial core-charges read in
  partial kinetic energy density read in
  atomic valenz-charges read in
  non local Contribution for L=           2  read in
    real space projection operators read in
  non local Contribution for L=           2  read in
    real space projection operators read in
  non local Contribution for L=           0  read in
    real space projection operators read in
  non local Contribution for L=           0  read in
    real space projection operators read in
  non local Contribution for L=           1  read in
    real space projection operators read in
  non local Contribution for L=           1  read in
    real space projection operators read in
    PAW grid and wavefunctions read in
 
   number of l-projection  operators is LMAX  =           6
   number of lm-projection operators is LMMAX =          18
 
  PAW_PBE Fe_pv 02Aug2007               :
 energy of atom  1       EATOM=-2457.4239
 kinetic energy error for atom=    0.0062 (will be added to EATOM!!)
  PAW_PBE Pt 04Feb2005                  :
 energy of atom  2       EATOM= -729.1176
 kinetic energy error for atom=    0.0032 (will be added to EATOM!!)
 
 
 POSCAR: Fe9 Pt3
  positions in direct lattice
  velocities in cartesian coordinates


 exchange-correlation table for PE
   RHO(1)=    0.500       N(1)  =     2000
   RHO(2)=  100.500       N(2)  =     4000
 


--------------------------------------------------------------------------------------------------------


 ion  position               nearest neighbor table
   1  0.000  0.500  0.167-   7 2.59   7 2.59   7 2.59   7 2.59  10 2.59   4 2.59  10 2.59   4 2.59
                             5 2.59   5 2.59  11 2.59  11 2.59
   2  0.000  0.500  0.500-   8 2.59   8 2.59   8 2.59   8 2.59  11 2.59  12 2.59  12 2.59  11 2.59
                             5 2.59   6 2.59   5 2.59   6 2.59
   3  0.000  0.500  0.833-   9 2.59   9 2.59   9 2.59   9 2.59  10 2.59   4 2.59  10 2.59   4 2.59
                             6 2.59   6 2.59  12 2.59  12 2.59
   4  0.500  0.500  0.000-  10 2.59  10 2.59  10 2.59  10 2.59   1 2.59   7 2.59   9 2.59   3 2.59
                             1 2.59   3 2.59   7 2.59   9 2.59
   5  0.500  0.500  0.333-  11 2.59  11 2.59  11 2.59  11 2.59   7 2.59   1 2.59   1 2.59   7 2.59
                             8 2.59   2 2.59   8 2.59   2 2.59
   6  0.500  0.500  0.667-  12 2.59  12 2.59  12 2.59  12 2.59   9 2.59   3 2.59   3 2.59   9 2.59
                             2 2.59   8 2.59   2 2.59   8 2.59
   7  0.500  0.000  0.167-   1 2.59   1 2.59   1 2.59   1 2.59   4 2.59  10 2.59  10 2.59   4 2.59
                             5 2.59   5 2.59  11 2.59  11 2.59
   8  0.500  0.000  0.500-   2 2.59   2 2.59   2 2.59   2 2.59  12 2.59  11 2.59  12 2.59  11 2.59
                             6 2.59   5 2.59   5 2.59   6 2.59
   9  0.500  0.000  0.833-   3 2.59   3 2.59   3 2.59   3 2.59   4 2.59  10 2.59  10 2.59   4 2.59
                             6 2.59   6 2.59  12 2.59  12 2.59
  10  0.000  0.000  0.000-   4 2.59   4 2.59   4 2.59   4 2.59   9 2.59   1 2.59   3 2.59   3 2.59
                             1 2.59   7 2.59   9 2.59   7 2.59
  11  0.000  0.000  0.333-   5 2.59   5 2.59   5 2.59   5 2.59   2 2.59   8 2.59   8 2.59   2 2.59
                             1 2.59   7 2.59   7 2.59   1 2.59
  12  0.000  0.000  0.667-   6 2.59   6 2.59   6 2.59   6 2.59   2 2.59   8 2.59   8 2.59   2 2.59
                             3 2.59   3 2.59   9 2.59   9 2.59
 
  LATTYP: Found a simple tetragonal cell.
 ALAT       =     3.6664714472
 C/A-ratio  =     3.0027335306
  
  Lattice vectors:
  
 A1 = (   3.6664714472,   0.0000000000,   0.0000000000)
 A2 = (   0.0000000000,   3.6664714472,   0.0000000000)
 A3 = (   0.0000000000,   0.0000000000,  11.0094367535)


Analysis of symmetry for initial positions (statically):
=====================================================================
 Subroutine PRICEL returns:
 Original cell was already a primitive cell.
 

 Routine SETGRP: Setting up the symmetry group for a 
 simple tetragonal supercell.


 Subroutine GETGRP returns: Found 16 space group operations
 (whereof 16 operations were pure point group operations)
 out of a pool of 16 trial point group operations.


The static configuration has the point symmetry D_4h.


Analysis of symmetry for dynamics (positions and initial velocities):
=====================================================================
 Subroutine PRICEL returns:
 Original cell was already a primitive cell.
 

 Routine SETGRP: Setting up the symmetry group for a 
 simple tetragonal supercell.


 Subroutine GETGRP returns: Found 16 space group operations
 (whereof 16 operations were pure point group operations)
 out of a pool of 16 trial point group operations.


The dynamic configuration has the point symmetry D_4h.


Analysis of structural, dynamic, and magnetic symmetry:
=====================================================================
 Subroutine PRICEL returns:
 Original cell was already a primitive cell.
 

 Routine SETGRP: Setting up the symmetry group for a 
 simple tetragonal supercell.


 Subroutine GETGRP returns: Found 16 space group operations
 (whereof 16 operations were pure point group operations)
 out of a pool of 16 trial point group operations.


The overall configuration has the point symmetry D_4h.


 Subroutine INISYM returns: Found 16 space group operations
 (whereof 16 operations are pure point group operations),
 and found     1 'primitive' translations


----------------------------------------------------------------------------------------

                                     Primitive cell                                     

  volume of cell :     148.0000

  direct lattice vectors                    reciprocal lattice vectors
     3.666471447  0.000000000  0.000000000     0.272741794  0.000000000  0.000000000
     0.000000000  3.666471447  0.000000000     0.000000000  0.272741794  0.000000000
     0.000000000  0.000000000 11.009436753     0.000000000  0.000000000  0.090831168

  length of vectors
     3.666471447  3.666471447 11.009436753     0.272741794  0.272741794  0.090831168

  position of ions in fractional coordinates (direct lattice)
     0.000000000  0.500000000  0.166611204
     0.000000000  0.500000000  0.500000000
     0.000000000  0.500000000  0.833388796
     0.500000000  0.500000000  0.000000000
     0.500000000  0.500000000  0.333261410
     0.500000000  0.500000000  0.666738590
     0.500000000  0.000000000  0.166611204
     0.500000000  0.000000000  0.500000000
     0.500000000  0.000000000  0.833388796
     0.000000000  0.000000000  0.000000000
     0.000000000  0.000000000  0.333324505
     0.000000000  0.000000000  0.666675495

  ion indices of the primitive-cell ions
   primitive index   ion index
                 1           1
                 2           2
                 3           3
                 4           4
                 5           5
                 6           6
                 7           7
                 8           8
                 9           9
                10          10
                11          11
                12          12

----------------------------------------------------------------------------------------

 
 
 KPOINTS: pymatgen with grid density = 8800 / numb

Automatic generation of k-mesh.
 Grid dimensions read from file:
 generate k-points for:   13   13    4

 Generating k-lattice:

  Cartesian coordinates                     Fractional coordinates (reciprocal lattice)
     0.020980138  0.000000000  0.000000000     0.076923077  0.000000000  0.000000000
     0.000000000  0.020980138  0.000000000     0.000000000  0.076923077  0.000000000
     0.000000000  0.000000000  0.022707792     0.000000000  0.000000000  0.250000000

  Length of vectors
     0.020980138  0.020980138  0.022707792

  Shift w.r.t. Gamma in fractional coordinates (k-lattice)
     0.000000000  0.000000000  0.000000000

 
 Subroutine IBZKPT returns following result:
 ===========================================
 
 Found     84 irreducible k-points:
 
 Following reciprocal coordinates:
            Coordinates               Weight
  0.000000  0.000000  0.000000      1.000000
  0.076923  0.000000  0.000000      4.000000
  0.153846  0.000000  0.000000      4.000000
  0.230769  0.000000  0.000000      4.000000
  0.307692  0.000000  0.000000      4.000000
  0.384615  0.000000  0.000000      4.000000
  0.461538  0.000000  0.000000      4.000000
  0.076923  0.076923  0.000000      4.000000
  0.153846  0.076923  0.000000      8.000000
  0.230769  0.076923  0.000000      8.000000
  0.307692  0.076923  0.000000      8.000000
  0.384615  0.076923  0.000000      8.000000
  0.461538  0.076923  0.000000      8.000000
  0.153846  0.153846  0.000000      4.000000
  0.230769  0.153846  0.000000      8.000000
  0.307692  0.153846  0.000000      8.000000
  0.384615  0.153846  0.000000      8.000000
  0.461538  0.153846  0.000000      8.000000
  0.230769  0.230769  0.000000      4.000000
  0.307692  0.230769  0.000000      8.000000
  0.384615  0.230769  0.000000      8.000000
  0.461538  0.230769  0.000000      8.000000
  0.307692  0.307692  0.000000      4.000000
  0.384615  0.307692  0.000000      8.000000
  0.461538  0.307692  0.000000      8.000000
  0.384615  0.384615  0.000000      4.000000
  0.461538  0.384615  0.000000      8.000000
  0.461538  0.461538  0.000000      4.000000
  0.000000  0.000000  0.250000      2.000000
  0.076923  0.000000  0.250000      8.000000
  0.153846  0.000000  0.250000      8.000000
  0.230769  0.000000  0.250000      8.000000
  0.307692  0.000000  0.250000      8.000000
  0.384615  0.000000  0.250000      8.000000
  0.461538  0.000000  0.250000      8.000000
  0.076923  0.076923  0.250000      8.000000
  0.153846  0.076923  0.250000     16.000000
  0.230769  0.076923  0.250000     16.000000
  0.307692  0.076923  0.250000     16.000000
  0.384615  0.076923  0.250000     16.000000
  0.461538  0.076923  0.250000     16.000000
  0.153846  0.153846  0.250000      8.000000
  0.230769  0.153846  0.250000     16.000000
  0.307692  0.153846  0.250000     16.000000
  0.384615  0.153846  0.250000     16.000000
  0.461538  0.153846  0.250000     16.000000
  0.230769  0.230769  0.250000      8.000000
  0.307692  0.230769  0.250000     16.000000
  0.384615  0.230769  0.250000     16.000000
  0.461538  0.230769  0.250000     16.000000
  0.307692  0.307692  0.250000      8.000000
  0.384615  0.307692  0.250000     16.000000
  0.461538  0.307692  0.250000     16.000000
  0.384615  0.384615  0.250000      8.000000
  0.461538  0.384615  0.250000     16.000000
  0.461538  0.461538  0.250000      8.000000
  0.000000  0.000000  0.500000      1.000000
  0.076923  0.000000  0.500000      4.000000
  0.153846  0.000000  0.500000      4.000000
  0.230769  0.000000  0.500000      4.000000
  0.307692  0.000000  0.500000      4.000000
  0.384615  0.000000  0.500000      4.000000
  0.461538  0.000000  0.500000      4.000000
  0.076923  0.076923  0.500000      4.000000
  0.153846  0.076923  0.500000      8.000000
  0.230769  0.076923  0.500000      8.000000
  0.307692  0.076923  0.500000      8.000000
  0.384615  0.076923  0.500000      8.000000
  0.461538  0.076923  0.500000      8.000000
  0.153846  0.153846  0.500000      4.000000
  0.230769  0.153846  0.500000      8.000000
  0.307692  0.153846  0.500000      8.000000
  0.384615  0.153846  0.500000      8.000000
  0.461538  0.153846  0.500000      8.000000
  0.230769  0.230769  0.500000      4.000000
  0.307692  0.230769  0.500000      8.000000
  0.384615  0.230769  0.500000      8.000000
  0.461538  0.230769  0.500000      8.000000
  0.307692  0.307692  0.500000      4.000000
  0.384615  0.307692  0.500000      8.000000
  0.461538  0.307692  0.500000      8.000000
  0.384615  0.384615  0.500000      4.000000
  0.461538  0.384615  0.500000      8.000000
  0.461538  0.461538  0.500000      4.000000
 
 Following cartesian coordinates:
            Coordinates               Weight
  0.000000  0.000000  0.000000      1.000000
  0.020980  0.000000  0.000000      4.000000
  0.041960  0.000000  0.000000      4.000000
  0.062940  0.000000  0.000000      4.000000
  0.083921  0.000000  0.000000      4.000000
  0.104901  0.000000  0.000000      4.000000
  0.125881  0.000000  0.000000      4.000000
  0.020980  0.020980  0.000000      4.000000
  0.041960  0.020980  0.000000      8.000000
  0.062940  0.020980  0.000000      8.000000
  0.083921  0.020980  0.000000      8.000000
  0.104901  0.020980  0.000000      8.000000
  0.125881  0.020980  0.000000      8.000000
  0.041960  0.041960  0.000000      4.000000
  0.062940  0.041960  0.000000      8.000000
  0.083921  0.041960  0.000000      8.000000
  0.104901  0.041960  0.000000      8.000000
  0.125881  0.041960  0.000000      8.000000
  0.062940  0.062940  0.000000      4.000000
  0.083921  0.062940  0.000000      8.000000
  0.104901  0.062940  0.000000      8.000000
  0.125881  0.062940  0.000000      8.000000
  0.083921  0.083921  0.000000      4.000000
  0.104901  0.083921  0.000000      8.000000
  0.125881  0.083921  0.000000      8.000000
  0.104901  0.104901  0.000000      4.000000
  0.125881  0.104901  0.000000      8.000000
  0.125881  0.125881  0.000000      4.000000
  0.000000  0.000000  0.022708      2.000000
  0.020980  0.000000  0.022708      8.000000
  0.041960  0.000000  0.022708      8.000000
  0.062940  0.000000  0.022708      8.000000
  0.083921  0.000000  0.022708      8.000000
  0.104901  0.000000  0.022708      8.000000
  0.125881  0.000000  0.022708      8.000000
  0.020980  0.020980  0.022708      8.000000
  0.041960  0.020980  0.022708     16.000000
  0.062940  0.020980  0.022708     16.000000
  0.083921  0.020980  0.022708     16.000000
  0.104901  0.020980  0.022708     16.000000
  0.125881  0.020980  0.022708     16.000000
  0.041960  0.041960  0.022708      8.000000
  0.062940  0.041960  0.022708     16.000000
  0.083921  0.041960  0.022708     16.000000
  0.104901  0.041960  0.022708     16.000000
  0.125881  0.041960  0.022708     16.000000
  0.062940  0.062940  0.022708      8.000000
  0.083921  0.062940  0.022708     16.000000
  0.104901  0.062940  0.022708     16.000000
  0.125881  0.062940  0.022708     16.000000
  0.083921  0.083921  0.022708      8.000000
  0.104901  0.083921  0.022708     16.000000
  0.125881  0.083921  0.022708     16.000000
  0.104901  0.104901  0.022708      8.000000
  0.125881  0.104901  0.022708     16.000000
  0.125881  0.125881  0.022708      8.000000
  0.000000  0.000000  0.045416      1.000000
  0.020980  0.000000  0.045416      4.000000
  0.041960  0.000000  0.045416      4.000000
  0.062940  0.000000  0.045416      4.000000
  0.083921  0.000000  0.045416      4.000000
  0.104901  0.000000  0.045416      4.000000
  0.125881  0.000000  0.045416      4.000000
  0.020980  0.020980  0.045416      4.000000
  0.041960  0.020980  0.045416      8.000000
  0.062940  0.020980  0.045416      8.000000
  0.083921  0.020980  0.045416      8.000000
  0.104901  0.020980  0.045416      8.000000
  0.125881  0.020980  0.045416      8.000000
  0.041960  0.041960  0.045416      4.000000
  0.062940  0.041960  0.045416      8.000000
  0.083921  0.041960  0.045416      8.000000
  0.104901  0.041960  0.045416      8.000000
  0.125881  0.041960  0.045416      8.000000
  0.062940  0.062940  0.045416      4.000000
  0.083921  0.062940  0.045416      8.000000
  0.104901  0.062940  0.045416      8.000000
  0.125881  0.062940  0.045416      8.000000
  0.083921  0.083921  0.045416      4.000000
  0.104901  0.083921  0.045416      8.000000
  0.125881  0.083921  0.045416      8.000000
  0.104901  0.104901  0.045416      4.000000
  0.125881  0.104901  0.045416      8.000000
  0.125881  0.125881  0.045416      4.000000
 


--------------------------------------------------------------------------------------------------------




 Dimension of arrays:
   k-points           NKPTS =     84   k-points in BZ     NKDIM =     84   number of bands    NBANDS=    128
   number of dos      NEDOS =    301   number of ions     NIONS =     12
   non local maximal  LDIM  =      6   non local SUM 2l+1 LMDIM =     18
   total plane-waves  NPLWV =  65856
   max r-space proj   IRMAX =      1   max aug-charges    IRDMAX=  27147
   dimension x,y,z NGX =    28 NGY =   28 NGZ =   84
   dimension x,y,z NGXF=    56 NGYF=   56 NGZF=  168
   support grid    NGXF=    56 NGYF=   56 NGZF=  168
   ions per type =               9   3
   NGX,Y,Z   is equivalent  to a cutoff of  12.70, 12.70, 12.68 a.u.
   NGXF,Y,Z  is equivalent  to a cutoff of  25.39, 25.39, 25.37 a.u.

 SYSTEM =  unknown system                          
 POSCAR =  Fe9 Pt3                                 

 Startparameter for this run:
   NWRITE =      2    write-flag & timer
   PREC   = accura    normal or accurate (medium, high low for compatibility)
   ISTART =      0    job   : 0-new  1-cont  2-samecut
   ICHARG =      2    charge: 1-file 2-atom 10-const
   ISPIN  =      2    spin polarized calculation?
   LNONCOLLINEAR =      F non collinear calculations
   LSORBIT =      F    spin-orbit coupling
   INIWAV =      1    electr: 0-lowe 1-rand  2-diag
   LASPH  =      F    aspherical Exc in radial PAW
 Electronic Relaxation 1
   ENCUT  =  520.0 eV  38.22 Ry    6.18 a.u.   6.82  6.82 20.47*2*pi/ulx,y,z
   ENINI  =  520.0     initial cutoff
   ENAUG  =  578.3 eV  augmentation charge cutoff
   NELM   =    200;   NELMIN=  2; NELMDL=  0     # of ELM steps 
   EDIFF  = 0.1E-05   stopping-criterion for ELM
   LREAL  =      F    real-space projection
   NLSPLINE    = F    spline interpolate recip. space projectors
   LCOMPAT=      F    compatible to vasp.4.4
   GGA_COMPAT  = T    GGA compatible to vasp.4.4-vasp.4.6
   LMAXPAW     = -100 max onsite density
   LMAXMIX     =    2 max onsite mixed and CHGCAR
   VOSKOWN=      0    Vosko Wilk Nusair interpolation
   ROPT   =    0.00000   0.00000
 Ionic relaxation
   EDIFFG = -.1E-01   stopping-criterion for IOM
   NSW    =    100    number of steps for IOM
   NBLOCK =      1;   KBLOCK =    100    inner block; outer block 
   IBRION =      2    ionic relax: 0-MD 1-quasi-New 2-CG
   NFREE  =      1    steps in history (QN), initial steepest desc. (CG)
   ISIF   =      4    stress and relaxation
   IWAVPR =     11    prediction:  0-non 1-charg 2-wave 3-comb
   ISYM   =      2    0-nonsym 1-usesym 2-fastsym
   LCORR  =      T    Harris-Foulkes like correction to forces

   POTIM  = 0.5000    time-step for ionic-motion
   TEIN   =    0.0    initial temperature
   TEBEG  =    0.0;   TEEND  =   0.0 temperature during run
   SMASS  =  -3.00    Nose mass-parameter (am)
   estimated Nose-frequenzy (Omega)   =  0.10E-29 period in steps = 0.13E+47 mass=  -0.307E-27a.u.
   SCALEE = 1.0000    scale energy and forces
   NPACO  =    256;   APACO  = 10.0  distance and # of slots for P.C.
   PSTRESS=    0.0 pullay stress

  Mass of Ions in am
   POMASS =  55.85195.08
  Ionic Valenz
   ZVAL   =  14.00 10.00
  Atomic Wigner-Seitz radii
   RWIGS  =  -1.00 -1.00
  virtual crystal weights 
   VCA    =   1.00  1.00
   NELECT =     156.0000    total number of electrons
   NUPDOWN=      -1.0000    fix difference up-down

 DOS related values:
   EMIN   =  10.00;   EMAX   =-10.00  energy-range for DOS
   EFERMI =   0.00;   METHOD = LEGACY      
   ISMEAR =     1;   SIGMA  =   0.20  broadening in eV -4-tet -1-fermi 0-gaus

 Electronic relaxation 2 (details)
   IALGO  =     58    algorithm
   LDIAG  =      T    sub-space diagonalisation (order eigenvalues)
   LSUBROT=      F    optimize rotation matrix (better conditioning)
   TURBO    =      0    0=normal 1=particle mesh
   IRESTART =      0    0=no restart 2=restart with 2 vectors
   NREBOOT  =      0    no. of reboots
   NMIN     =      0    reboot dimension
   EREF     =   0.00    reference energy to select bands
   IMIX   =      4    mixing-type and parameters
     AMIX     =   0.40;   BMIX     =  1.00
     AMIX_MAG =   1.60;   BMIX_MAG =  1.00
     AMIN     =   0.10
     WC   =   100.;   INIMIX=   1;  MIXPRE=   1;  MAXMIX= -45

 Intra band minimization:
   WEIMIN = 0.0010     energy-eigenvalue tresh-hold
   EBREAK =  0.20E-08  absolut break condition
   DEPER  =   0.30     relativ break condition  

   TIME   =   0.40     timestep for ELM

  volume/ion in A,a.u.               =      12.33        83.23
  Fermi-wavevector in a.u.,A,eV,Ry     =   1.666080  3.148434 37.767349  2.775822
  Thomas-Fermi vector in A             =   2.752338
 
 Write flags
   LWAVE        =      F    write WAVECAR
   LDOWNSAMPLE  =      F    k-point downsampling of WAVECAR
   LCHARG       =      T    write CHGCAR
   LVTOT        =      F    write LOCPOT, total local potential
   LVHAR        =      F    write LOCPOT, Hartree potential only
   WRT_POTENTIAL= false  ! write potential to hdf5 file
   LELF         =      F    write electronic localiz. function (ELF)
   LORBIT       =     11    0 simple, 1 ext, 2 COOP (PROOUT), +10 PAW based schemes


 Dipole corrections
   LMONO      =      F    monopole corrections only (constant potential shift)
   LDIPOL     =      F    correct potential (dipole corrections)
   IDIPOL     =      0    1-x, 2-y, 3-z, 4-all directions 
   EPSILON    =  1.0000000 bulk dielectric constant
   LVACPOTAV  =      F  vacuum potentials using an averaging scheme for the charge density
   VACPOTFLAT =  0.1000000 required flatness to determine vacuum potential
 Exchange correlation treatment:
   GGA     = PE    functional components
   XC_C    = 1    coefficients multiplying the functional components
   LIBXC   =     F    Libxc                    
   VOSKOWN =     0    Vosko Wilk Nusair interpolation
   LHFCALC =     F    Hartree Fock is set to
   LHFONE  =     F    Hartree Fock one center treatment
   AEXX    =    0.0000 exact exchange contribution

 Parameters of functionals:
   PE:
     No parameter
 
 Van der Waals corrections
   IVDW    =     0    specifies the selected vdW correction

 Linear response parameters
   LEPSILON=     F    determine dielectric tensor
   LRPA    =     F    only Hartree local field effects (RPA)
   LNABLA  =     F    use nabla operator in PAW spheres
   LVEL    =     F    velocity operator in full k-point grid
   CSHIFT  =0.1000    complex shift for real part using Kramers Kronig
   OMEGAMAX=  -1.0    maximum frequency
   DEG_THRESHOLD= 0.2000000E-02 threshold for treating states as degnerate
   RTIME   =   -0.100 relaxation time in fs
  (WPLASMAI=    0.000 imaginary part of plasma frequency in eV, 0.658/RTIME)
   DFIELD  = 0.0000000 0.0000000 0.0000000 field for delta impulse in time
 
  Optional k-point grid parameters
   LKPOINTS_OPT  =     F    use optional k-point grid
   KPOINTS_OPT_MODE=     1    mode for optional k-point grid
 
 Orbital magnetization related:
   ORBITALMAG=     F  switch on orbital magnetization
   LCHIMAG   =     F  perturbation theory with respect to B field
   DQ        =  0.001000  dq finite difference perturbation B field
   LLRAUG    =     F  two centre corrections for induced B field
   LBONE     =     F  B-component reconstruction in AE one-centre
   LVGVCALC  =     T  calculate vGv susceptibility
   LVGVAPPL  =     F  apply vGv susceptibility instead of pGv for G=0

 Random number generation:
   RANDOM_GENERATOR = DEFAULT
   PCG_SEED         = not used


--------------------------------------------------------------------------------------------------------


 conjugate gradient relaxation of ions
 charge density and potential will be updated during run
 spin polarized calculation
 Conjugate gradient for all bands (Freysoldt, et al. PRB 79, 241103 (2009))
 preconditioned conjugated gradient                                        
 perform sub-space diagonalisation
    before iterative eigenvector-optimisation
 modified Broyden-mixing scheme, WC =      100.0
 initial mixing is a Kerker type mixing with AMIX =  0.4000 and BMIX =      1.0000
 Hartree-type preconditioning will be used
 using additional bands           50
 reciprocal scheme for non local part
 use partial core corrections
 no Harris-corrections to forces 
 use gradient corrections 
 use of overlap-Matrix (Vanderbilt PP)
 Methfessel and Paxton  Order N= 1 SIGMA  =   0.20


--------------------------------------------------------------------------------------------------------


  energy-cutoff  :      520.00
  volume of cell :      148.00
      direct lattice vectors                 reciprocal lattice vectors
     3.666471447  0.000000000  0.000000000     0.272741794  0.000000000  0.000000000
     0.000000000  3.666471447  0.000000000     0.000000000  0.272741794  0.000000000
     0.000000000  0.000000000 11.009436753     0.000000000  0.000000000  0.090831168

  length of vectors
     3.666471447  3.666471447 11.009436753     0.272741794  0.272741794  0.090831168


 
 k-points in units of 2pi/SCALE and weight: pymatgen with grid density = 8800 / numb
   0.00000000  0.00000000  0.00000000       0.001
   0.02098014  0.00000000  0.00000000       0.006
   0.04196028  0.00000000  0.00000000       0.006
   0.06294041  0.00000000  0.00000000       0.006
   0.08392055  0.00000000  0.00000000       0.006
   0.10490069  0.00000000  0.00000000       0.006
   0.12588083  0.00000000  0.00000000       0.006
   0.02098014  0.02098014  0.00000000       0.006
   0.04196028  0.02098014  0.00000000       0.012
   0.06294041  0.02098014  0.00000000       0.012
   0.08392055  0.02098014  0.00000000       0.012
   0.10490069  0.02098014  0.00000000       0.012
   0.12588083  0.02098014  0.00000000       0.012
   0.04196028  0.04196028  0.00000000       0.006
   0.06294041  0.04196028  0.00000000       0.012
   0.08392055  0.04196028  0.00000000       0.012
   0.10490069  0.04196028  0.00000000       0.012
   0.12588083  0.04196028  0.00000000       0.012
   0.06294041  0.06294041  0.00000000       0.006
   0.08392055  0.06294041  0.00000000       0.012
   0.10490069  0.06294041  0.00000000       0.012
   0.12588083  0.06294041  0.00000000       0.012
   0.08392055  0.08392055  0.00000000       0.006
   0.10490069  0.08392055  0.00000000       0.012
   0.12588083  0.08392055  0.00000000       0.012
   0.10490069  0.10490069  0.00000000       0.006
   0.12588083  0.10490069  0.00000000       0.012
   0.12588083  0.12588083  0.00000000       0.006
   0.00000000  0.00000000  0.02270779       0.003
   0.02098014  0.00000000  0.02270779       0.012
   0.04196028  0.00000000  0.02270779       0.012
   0.06294041  0.00000000  0.02270779       0.012
   0.08392055  0.00000000  0.02270779       0.012
   0.10490069  0.00000000  0.02270779       0.012
   0.12588083  0.00000000  0.02270779       0.012
   0.02098014  0.02098014  0.02270779       0.012
   0.04196028  0.02098014  0.02270779       0.024
   0.06294041  0.02098014  0.02270779       0.024
   0.08392055  0.02098014  0.02270779       0.024
   0.10490069  0.02098014  0.02270779       0.024
   0.12588083  0.02098014  0.02270779       0.024
   0.04196028  0.04196028  0.02270779       0.012
   0.06294041  0.04196028  0.02270779       0.024
   0.08392055  0.04196028  0.02270779       0.024
   0.10490069  0.04196028  0.02270779       0.024
   0.12588083  0.04196028  0.02270779       0.024
   0.06294041  0.06294041  0.02270779       0.012
   0.08392055  0.06294041  0.02270779       0.024
   0.10490069  0.06294041  0.02270779       0.024
   0.12588083  0.06294041  0.02270779       0.024
   0.08392055  0.08392055  0.02270779       0.012
   0.10490069  0.08392055  0.02270779       0.024
   0.12588083  0.08392055  0.02270779       0.024
   0.10490069  0.10490069  0.02270779       0.012
   0.12588083  0.10490069  0.02270779       0.024
   0.12588083  0.12588083  0.02270779       0.012
   0.00000000  0.00000000  0.04541558       0.001
   0.02098014  0.00000000  0.04541558       0.006
   0.04196028  0.00000000  0.04541558       0.006
   0.06294041  0.00000000  0.04541558       0.006
   0.08392055  0.00000000  0.04541558       0.006
   0.10490069  0.00000000  0.04541558       0.006
   0.12588083  0.00000000  0.04541558       0.006
   0.02098014  0.02098014  0.04541558       0.006
   0.04196028  0.02098014  0.04541558       0.012
   0.06294041  0.02098014  0.04541558       0.012
   0.08392055  0.02098014  0.04541558       0.012
   0.10490069  0.02098014  0.04541558       0.012
   0.12588083  0.02098014  0.04541558       0.012
   0.04196028  0.04196028  0.04541558       0.006
   0.06294041  0.04196028  0.04541558       0.012
   0.08392055  0.04196028  0.04541558       0.012
   0.10490069  0.04196028  0.04541558       0.012
   0.12588083  0.04196028  0.04541558       0.012
   0.06294041  0.06294041  0.04541558       0.006
   0.08392055  0.06294041  0.04541558       0.012
   0.10490069  0.06294041  0.04541558       0.012
   0.12588083  0.06294041  0.04541558       0.012
   0.08392055  0.08392055  0.04541558       0.006
   0.10490069  0.08392055  0.04541558       0.012
   0.12588083  0.08392055  0.04541558       0.012
   0.10490069  0.10490069  0.04541558       0.006
   0.12588083  0.10490069  0.04541558       0.012
   0.12588083  0.12588083  0.04541558       0.006
 
 k-points in reciprocal lattice and weights: pymatgen with grid density = 8800 / numb
   0.00000000  0.00000000  0.00000000       0.001
   0.07692308  0.00000000  0.00000000       0.006
   0.15384615  0.00000000  0.00000000       0.006
   0.23076923  0.00000000  0.00000000       0.006
   0.30769231  0.00000000  0.00000000       0.006
   0.38461538  0.00000000  0.00000000       0.006
   0.46153846  0.00000000  0.00000000       0.006
   0.07692308  0.07692308  0.00000000       0.006
   0.15384615  0.07692308  0.00000000       0.012
   0.23076923  0.07692308  0.00000000       0.012
   0.30769231  0.07692308  0.00000000       0.012
   0.38461538  0.07692308  0.00000000       0.012
   0.46153846  0.07692308  0.00000000       0.012
   0.15384615  0.15384615  0.00000000       0.006
   0.23076923  0.15384615  0.00000000       0.012
   0.30769231  0.15384615  0.00000000       0.012
   0.38461538  0.15384615  0.00000000       0.012
   0.46153846  0.15384615  0.00000000       0.012
   0.23076923  0.23076923  0.00000000       0.006
   0.30769231  0.23076923  0.00000000       0.012
   0.38461538  0.23076923  0.00000000       0.012
   0.46153846  0.23076923  0.00000000       0.012
   0.30769231  0.30769231  0.00000000       0.006
   0.38461538  0.30769231  0.00000000       0.012
   0.46153846  0.30769231  0.00000000       0.012
   0.38461538  0.38461538  0.00000000       0.006
   0.46153846  0.38461538  0.00000000       0.012
   0.46153846  0.46153846  0.00000000       0.006
   0.00000000  0.00000000  0.25000000       0.003
   0.07692308  0.00000000  0.25000000       0.012
   0.15384615  0.00000000  0.25000000       0.012
   0.23076923  0.00000000  0.25000000       0.012
   0.30769231  0.00000000  0.25000000       0.012
   0.38461538  0.00000000  0.25000000       0.012
   0.46153846  0.00000000  0.25000000       0.012
   0.07692308  0.07692308  0.25000000       0.012
   0.15384615  0.07692308  0.25000000       0.024
   0.23076923  0.07692308  0.25000000       0.024
   0.30769231  0.07692308  0.25000000       0.024
   0.38461538  0.07692308  0.25000000       0.024
   0.46153846  0.07692308  0.25000000       0.024
   0.15384615  0.15384615  0.25000000       0.012
   0.23076923  0.15384615  0.25000000       0.024
   0.30769231  0.15384615  0.25000000       0.024
   0.38461538  0.15384615  0.25000000       0.024
   0.46153846  0.15384615  0.25000000       0.024
   0.23076923  0.23076923  0.25000000       0.012
   0.30769231  0.23076923  0.25000000       0.024
   0.38461538  0.23076923  0.25000000       0.024
   0.46153846  0.23076923  0.25000000       0.024
   0.30769231  0.30769231  0.25000000       0.012
   0.38461538  0.30769231  0.25000000       0.024
   0.46153846  0.30769231  0.25000000       0.024
   0.38461538  0.38461538  0.25000000       0.012
   0.46153846  0.38461538  0.25000000       0.024
   0.46153846  0.46153846  0.25000000       0.012
   0.00000000  0.00000000  0.50000000       0.001
   0.07692308  0.00000000  0.50000000       0.006
   0.15384615  0.00000000  0.50000000       0.006
   0.23076923  0.00000000  0.50000000       0.006
   0.30769231  0.00000000  0.50000000       0.006
   0.38461538  0.00000000  0.50000000       0.006
   0.46153846  0.00000000  0.50000000       0.006
   0.07692308  0.07692308  0.50000000       0.006
   0.15384615  0.07692308  0.50000000       0.012
   0.23076923  0.07692308  0.50000000       0.012
   0.30769231  0.07692308  0.50000000       0.012
   0.38461538  0.07692308  0.50000000       0.012
   0.46153846  0.07692308  0.50000000       0.012
   0.15384615  0.15384615  0.50000000       0.006
   0.23076923  0.15384615  0.50000000       0.012
   0.30769231  0.15384615  0.50000000       0.012
   0.38461538  0.15384615  0.50000000       0.012
   0.46153846  0.15384615  0.50000000       0.012
   0.23076923  0.23076923  0.50000000       0.006
   0.30769231  0.23076923  0.50000000       0.012
   0.38461538  0.23076923  0.50000000       0.012
   0.46153846  0.23076923  0.50000000       0.012
   0.30769231  0.30769231  0.50000000       0.006
   0.38461538  0.30769231  0.50000000       0.012
   0.46153846  0.30769231  0.50000000       0.012
   0.38461538  0.38461538  0.50000000       0.006
   0.46153846  0.38461538  0.50000000       0.012
   0.46153846  0.46153846  0.50000000       0.006
 
 position of ions in fractional coordinates (direct lattice) 
   0.00000000  0.50000000  0.16661120
   0.00000000  0.50000000  0.50000000
   0.00000000  0.50000000  0.83338880
   0.50000000  0.50000000  0.00000000
   0.50000000  0.50000000  0.33326141
   0.50000000  0.50000000  0.66673859
   0.50000000  0.00000000  0.16661120
   0.50000000  0.00000000  0.50000000
   0.50000000  0.00000000  0.83338880
   0.00000000  0.00000000  0.00000000
   0.00000000  0.00000000  0.33332450
   0.00000000  0.00000000  0.66667550
 
 position of ions in cartesian coordinates  (Angst):
   0.00000000  1.83323572  1.83429552
   0.00000000  1.83323572  5.50471838
   0.00000000  1.83323572  9.17514124
   1.83323572  1.83323572  0.00000000
   1.83323572  1.83323572  3.66902042
   1.83323572  1.83323572  7.34041634
   1.83323572  0.00000000  1.83429552
   1.83323572  0.00000000  5.50471838
   1.83323572  0.00000000  9.17514124
   0.00000000  0.00000000  0.00000000
   0.00000000  0.00000000  3.66971505
   0.00000000  0.00000000  7.33972170
 


--------------------------------------------------------------------------------------------------------


 k-point     1 :   0.0000 0.0000 0.0000  plane waves:    4009
 k-point     2 :   0.0769 0.0000 0.0000  plane waves:    4009
 k-point     3 :   0.1538 0.0000 0.0000  plane waves:    3985
 k-point     4 :   0.2308 0.0000 0.0000  plane waves:    3984
 k-point     5 :   0.3077 0.0000 0.0000  plane waves:    3976
 k-point     6 :   0.3846 0.0000 0.0000  plane waves:    3974
 k-point     7 :   0.4615 0.0000 0.0000  plane waves:    3964
 k-point     8 :   0.0769 0.0769 0.0000  plane waves:    3999
 k-point     9 :   0.1538 0.0769 0.0000  plane waves:    3991
 k-point    10 :   0.2308 0.0769 0.0000  plane waves:    3973
 k-point    11 :   0.3077 0.0769 0.0000  plane waves:    3986
 k-point    12 :   0.3846 0.0769 0.0000  plane waves:    3987
 k-point    13 :   0.4615 0.0769 0.0000  plane waves:    3980
 k-point    14 :   0.1538 0.1538 0.0000  plane waves:    3971
 k-point    15 :   0.2308 0.1538 0.0000  plane waves:    3980
 k-point    16 :   0.3077 0.1538 0.0000  plane waves:    3978
 k-point    17 :   0.3846 0.1538 0.0000  plane waves:    3993
 k-point    18 :   0.4615 0.1538 0.0000  plane waves:    3983
 k-point    19 :   0.2308 0.2308 0.0000  plane waves:    3978
 k-point    20 :   0.3077 0.2308 0.0000  plane waves:    3986
 k-point    21 :   0.3846 0.2308 0.0000  plane waves:    3992
 k-point    22 :   0.4615 0.2308 0.0000  plane waves:    3990
 k-point    23 :   0.3077 0.3077 0.0000  plane waves:    3976
 k-point    24 :   0.3846 0.3077 0.0000  plane waves:    3999
 k-point    25 :   0.4615 0.3077 0.0000  plane waves:    3998
 k-point    26 :   0.3846 0.3846 0.0000  plane waves:    3990
 k-point    27 :   0.4615 0.3846 0.0000  plane waves:    3988
 k-point    28 :   0.4615 0.4615 0.0000  plane waves:    4008
 k-point    29 :   0.0000 0.0000 0.2500  plane waves:    3985
 k-point    30 :   0.0769 0.0000 0.2500  plane waves:    3992
 k-point    31 :   0.1538 0.0000 0.2500  plane waves:    3980
 k-point    32 :   0.2308 0.0000 0.2500  plane waves:    3971
 k-point    33 :   0.3077 0.0000 0.2500  plane waves:    3988
 k-point    34 :   0.3846 0.0000 0.2500  plane waves:    3982
 k-point    35 :   0.4615 0.0000 0.2500  plane waves:    3988
 k-point    36 :   0.0769 0.0769 0.2500  plane waves:    3987
 k-point    37 :   0.1538 0.0769 0.2500  plane waves:    3973
 k-point    38 :   0.2308 0.0769 0.2500  plane waves:    3981
 k-point    39 :   0.3077 0.0769 0.2500  plane waves:    3986
 k-point    40 :   0.3846 0.0769 0.2500  plane waves:    3980
 k-point    41 :   0.4615 0.0769 0.2500  plane waves:    3972
 k-point    42 :   0.1538 0.1538 0.2500  plane waves:    3982
 k-point    43 :   0.2308 0.1538 0.2500  plane waves:    3977
 k-point    44 :   0.3077 0.1538 0.2500  plane waves:    3989
 k-point    45 :   0.3846 0.1538 0.2500  plane waves:    3982
 k-point    46 :   0.4615 0.1538 0.2500  plane waves:    3980
 k-point    47 :   0.2308 0.2308 0.2500  plane waves:    3975
 k-point    48 :   0.3077 0.2308 0.2500  plane waves:    3978
 k-point    49 :   0.3846 0.2308 0.2500  plane waves:    3987
 k-point    50 :   0.4615 0.2308 0.2500  plane waves:    3999
 k-point    51 :   0.3077 0.3077 0.2500  plane waves:    3986
 k-point    52 :   0.3846 0.3077 0.2500  plane waves:    3990
 k-point    53 :   0.4615 0.3077 0.2500  plane waves:    3997
 k-point    54 :   0.3846 0.3846 0.2500  plane waves:    4009
 k-point    55 :   0.4615 0.3846 0.2500  plane waves:    3999
 k-point    56 :   0.4615 0.4615 0.2500  plane waves:    4016
 k-point    57 :   0.0000 0.0000 0.5000  plane waves:    4000
 k-point    58 :   0.0769 0.0000 0.5000  plane waves:    3974
 k-point    59 :   0.1538 0.0000 0.5000  plane waves:    3968
 k-point    60 :   0.2308 0.0000 0.5000  plane waves:    3968
 k-point    61 :   0.3077 0.0000 0.5000  plane waves:    3980
 k-point    62 :   0.3846 0.0000 0.5000  plane waves:    3998
 k-point    63 :   0.4615 0.0000 0.5000  plane waves:    3992
 k-point    64 :   0.0769 0.0769 0.5000  plane waves:    3968
 k-point    65 :   0.1538 0.0769 0.5000  plane waves:    3966
 k-point    66 :   0.2308 0.0769 0.5000  plane waves:    3974
 k-point    67 :   0.3077 0.0769 0.5000  plane waves:    3988
 k-point    68 :   0.3846 0.0769 0.5000  plane waves:    3980
 k-point    69 :   0.4615 0.0769 0.5000  plane waves:    3978
 k-point    70 :   0.1538 0.1538 0.5000  plane waves:    3970
 k-point    71 :   0.2308 0.1538 0.5000  plane waves:    3978
 k-point    72 :   0.3077 0.1538 0.5000  plane waves:    3976
 k-point    73 :   0.3846 0.1538 0.5000  plane waves:    3982
 k-point    74 :   0.4615 0.1538 0.5000  plane waves:    3968
 k-point    75 :   0.2308 0.2308 0.5000  plane waves:    3982
 k-point    76 :   0.3077 0.2308 0.5000  plane waves:    3996
 k-point    77 :   0.3846 0.2308 0.5000  plane waves:    3988
 k-point    78 :   0.4615 0.2308 0.5000  plane waves:    3980
 k-point    79 :   0.3077 0.3077 0.5000  plane waves:    3976
 k-point    80 :   0.3846 0.3077 0.5000  plane waves:    3986
 k-point    81 :   0.4615 0.3077 0.5000  plane waves:    3996
 k-point    82 :   0.3846 0.3846 0.5000  plane waves:    3996
 k-point    83 :   0.4615 0.3846 0.5000  plane waves:    4004
 k-point    84 :   0.4615 0.4615 0.5000  plane waves:    3998

 maximum and minimum number of plane-waves per node :      4016     3964

 maximum number of plane-waves:      4016
 maximum index in each direction: 
   IXMAX=    6   IYMAX=    6   IZMAX=   20
   IXMIN=   -7   IYMIN=   -7   IZMIN=  -20


 serial   3D FFT for wavefunctions
 parallel 3D FFT for charge:
    minimum data exchange during FFTs selected (reduces bandwidth)


 total amount of memory used by VASP MPI-rank0   273670. kBytes
=======================================================================

   base      :      30000. kBytes
   nonl-proj :      98316. kBytes
   fftplans  :        888. kBytes
   grid      :       6813. kBytes
   one-center:        373. kBytes
   wavefun   :     137280. kBytes
 
     INWAV:  cpu time      0.0000: real time      0.0000
 Broyden mixing: mesh for mixing (old mesh)
   NGX = 13   NGY = 13   NGZ = 41
  (NGX  = 56   NGY  = 56   NGZ  =168)
  gives a total of   6929 points

 initial charge density was supplied:
 charge density of overlapping atoms calculated
 number of electron     156.0000000 magnetization      24.4440000
 charge density for first step will be calculated from the start-wavefunctions


--------------------------------------------------------------------------------------------------------


 Maximum index for augmentation-charges         1069 (set IRDMAX)


--------------------------------------------------------------------------------------------------------


 First call to EWALD:  gamma=   0.335
 Maximum number of real-space cells 4x 4x 2
 Maximum number of reciprocal cells 2x 2x 5

    FEWALD:  cpu time      0.0019: real time      0.0019


--------------------------------------- Ionic step        1  -------------------------------------------




--------------------------------------- Iteration      1(   1)  ---------------------------------------


    POTLOK:  cpu time      0.0361: real time      0.0370
    SETDIJ:  cpu time      0.0103: real time      0.0104
    TRIAL :  cpu time      6.1716: real time      6.2448
    CORREC:  cpu time      0.0032: real time      0.0032
    --------------------------------------------
      LOOP:  cpu time      6.3189: real time      6.4216

 eigenvalue-minimisations  : 43040
 total energy-change (2. order) : 0.1766181E+04  (-0.9149639E+04)
 number of electron     156.0000000 magnetization      24.4440000
 augmentation part      156.0000000 magnetization      24.4440000

 Free energy of the ion-electron system (eV)
  ---------------------------------------------------
  alpha Z        PSCENC =      1149.93330786
  Ewald energy   TEWEN  =    -18412.59496304
  -Hartree energ DENC   =     -5830.89849770
  -exchange      EXHF   =         0.00000000
  -V(xc)+E(xc)   XCENC  =       659.28448738
  PAW double counting   =     20094.29355533   -20818.25165013
  entropy T*S    EENTRO =         0.00015247
  eigenvalues    EBANDS =       620.31132734
  atomic energy  EATOM  =     24304.10294433
  ---------------------------------------------------
  free energy    TOTEN  =      1766.18066384 eV

  energy without entropy =     1766.18051138  energy(sigma->0) =     1766.18061302


--------------------------------------------------------------------------------------------------------




--------------------------------------- Iteration      1(   2)  ---------------------------------------


    TRIAL :  cpu time      5.6462: real time      5.6892
    CORREC:  cpu time      0.0024: real time      0.0024
    --------------------------------------------
      LOOP:  cpu time      5.6635: real time      5.7121

 eigenvalue-minimisations  : 43008
 total energy-change (2. order) :-0.1759738E+04  (-0.1667643E+04)
 number of electron     156.0000000 magnetization      24.4440000
 augmentation part      156.0000000 magnetization      24.4440000

 Free energy of the ion-electron system (eV)
  ---------------------------------------------------
  alpha Z        PSCENC =      1149.93330786
  Ewald energy   TEWEN  =    -18412.59496304
  -Hartree energ DENC   =     -5830.89849770
  -exchange      EXHF   =         0.00000000
  -V(xc)+E(xc)   XCENC  =       659.28448738
  PAW double counting   =     20094.29355533   -20818.25165013
  entropy T*S    EENTRO =        -0.00798585
  eigenvalues    EBANDS =     -1139.41866721
  atomic energy  EATOM  =     24304.10294433
  ---------------------------------------------------
  free energy    TOTEN  =         6.44253097 eV

  energy without entropy =        6.45051682  energy(sigma->0) =        6.44519292


--------------------------------------------------------------------------------------------------------




--------------------------------------- Iteration      1(   3)  ---------------------------------------


    TRIAL :  cpu time      6.8198: real time      6.8729
    CORREC:  cpu time      0.0025: real time      0.0026
    --------------------------------------------
      LOOP:  cpu time      6.8404: real time      6.8990

 eigenvalue-minimisations  : 50656
 total energy-change (2. order) :-0.1089875E+03  (-0.1074006E+03)
 number of electron     156.0000000 magnetization      24.4440000
 augmentation part      156.0000000 magnetization      24.4440000

 Free energy of the ion-electron system (eV)
  ---------------------------------------------------
  alpha Z        PSCENC =      1149.93330786
  Ewald energy   TEWEN  =    -18412.59496304
  -Hartree energ DENC   =     -5830.89849770
  -exchange      EXHF   =         0.00000000
  -V(xc)+E(xc)   XCENC  =       659.28448738
  PAW double counting   =     20094.29355533   -20818.25165013
  entropy T*S    EENTRO =        -0.03252285
  eigenvalues    EBANDS =     -1248.38159824
  atomic energy  EATOM  =     24304.10294433
  ---------------------------------------------------
  free energy    TOTEN  =      -102.54493706 eV

  energy without entropy =     -102.51241421  energy(sigma->0) =     -102.53409611


--------------------------------------------------------------------------------------------------------




--------------------------------------- Iteration      1(   4)  ---------------------------------------


    TRIAL :  cpu time      6.0601: real time      6.1051
    CORREC:  cpu time      0.0024: real time      0.0024
    --------------------------------------------
      LOOP:  cpu time      6.0789: real time      6.1310

 eigenvalue-minimisations  : 45984
 total energy-change (2. order) :-0.1538888E+01  (-0.1538542E+01)
 number of electron     156.0000000 magnetization      24.4440000
 augmentation part      156.0000000 magnetization      24.4440000

 Free energy of the ion-electron system (eV)
  ---------------------------------------------------
  alpha Z        PSCENC =      1149.93330786
  Ewald energy   TEWEN  =    -18412.59496304
  -Hartree energ DENC   =     -5830.89849770
  -exchange      EXHF   =         0.00000000
  -V(xc)+E(xc)   XCENC  =       659.28448738
  PAW double counting   =     20094.29355533   -20818.25165013
  entropy T*S    EENTRO =        -0.03263523
  eigenvalues    EBANDS =     -1249.92037362
  atomic energy  EATOM  =     24304.10294433
  ---------------------------------------------------
  free energy    TOTEN  =      -104.08382482 eV

  energy without entropy =     -104.05118959  energy(sigma->0) =     -104.07294641


--------------------------------------------------------------------------------------------------------




--------------------------------------- Iteration      1(   5)  ---------------------------------------


    TRIAL :  cpu time      7.2038: real time      7.2556
    CORREC:  cpu time      0.0025: real time      0.0025
    CHARGE:  cpu time      0.1786: real time      0.1797
    --------------------------------------------
      LOOP:  cpu time      7.4004: real time      7.4605

 eigenvalue-minimisations  : 52608
 total energy-change (2. order) :-0.2819776E-01  (-0.2819704E-01)
 number of electron     156.0000018 magnetization      19.4721345
 augmentation part       79.3728181 magnetization      13.9754693

 Free energy of the ion-electron system (eV)
  ---------------------------------------------------
  alpha Z        PSCENC =      1149.93330786
  Ewald energy   TEWEN  =    -18412.59496304
  -Hartree energ DENC   =     -5830.89849770
  -exchange      EXHF   =         0.00000000
  -V(xc)+E(xc)   XCENC  =       659.28448738
  PAW double counting   =     20094.29355533   -20818.25165013
  entropy T*S    EENTRO =        -0.03263671
  eigenvalues    EBANDS =     -1249.94856990
  atomic energy  EATOM  =     24304.10294433
  ---------------------------------------------------
  free energy    TOTEN  =      -104.11202259 eV

  energy without entropy =     -104.07938587  energy(sigma->0) =     -104.10114368


--------------------------------------------------------------------------------------------------------




--------------------------------------- Iteration      1(   6)  ---------------------------------------


    POTLOK:  cpu time      0.0223: real time      0.0225
    SETDIJ:  cpu time      0.0085: real time      0.0087
    TRIAL :  cpu time      2.7036: real time      2.7320
    CORREC:  cpu time      1.1008: real time      1.1108
    CHARGE:  cpu time      0.1676: real time      0.1685
    --------------------------------------------
      LOOP:  cpu time      4.0180: real time      4.0657

 eigenvalue-minimisations  :     0
 total energy-change (2. order) : 0.4515337E+02  (-0.2766216E+02)
 number of electron     156.0000019 magnetization      20.7658203
 augmentation part       83.4723578 magnetization      15.4011574

 Free energy of the ion-electron system (eV)
  ---------------------------------------------------
  alpha Z        PSCENC =      1149.93330786
  Ewald energy   TEWEN  =    -18412.59496304
  -Hartree energ DENC   =     -4762.58361274
  -exchange      EXHF   =         0.00000000
  -V(xc)+E(xc)   XCENC  =       613.75002361
  PAW double counting   =     21618.84575898   -22289.80324114
  entropy T*S    EENTRO =        -0.00354346
  eigenvalues    EBANDS =     -2280.57623185
  atomic energy  EATOM  =     24304.10294433
  ---------------------------------------------------
  free energy    TOTEN  =       -58.95865070 eV

  energy without entropy =      -58.95510725  energy(sigma->0) =      -58.95746955


--------------------------------------------------------------------------------------------------------




--------------------------------------- Iteration      1(   7)  ---------------------------------------


    POTLOK:  cpu time      0.0216: real time      0.0217
    SETDIJ:  cpu time      0.0074: real time      0.0074
    TRIAL :  cpu time      2.7478: real time      2.7759
    CORREC:  cpu time      1.0978: real time      1.1116
    CHARGE:  cpu time      0.1644: real time      0.1654
    --------------------------------------------
      LOOP:  cpu time      4.0558: real time      4.1046

 eigenvalue-minimisations  :     0
 total energy-change (2. order) :-0.2797013E+02  (-0.3406369E+01)
 number of electron     156.0000020 magnetization      21.6045925
 augmentation part       84.3054105 magnetization      16.1594489

 Free energy of the ion-electron system (eV)
  ---------------------------------------------------
  alpha Z        PSCENC =      1149.93330786
  Ewald energy   TEWEN  =    -18412.59496304
  -Hartree energ DENC   =     -5334.71402122
  -exchange      EXHF   =         0.00000000
  -V(xc)+E(xc)   XCENC  =       637.70715125
  PAW double counting   =     22336.95582100   -23117.60246637
  entropy T*S    EENTRO =        -0.00129889
  eigenvalues    EBANDS =     -1650.71300675
  atomic energy  EATOM  =     24304.10294433
  ---------------------------------------------------
  free energy    TOTEN  =       -86.92877640 eV

  energy without entropy =      -86.92747751  energy(sigma->0) =      -86.92834344


--------------------------------------------------------------------------------------------------------




--------------------------------------- Iteration      1(   8)  ---------------------------------------


    POTLOK:  cpu time      0.0217: real time      0.0219
    SETDIJ:  cpu time      0.0077: real time      0.0078
    TRIAL :  cpu time      2.7013: real time      2.7281
    CORREC:  cpu time      1.0894: real time      1.1019
    CHARGE:  cpu time      0.1611: real time      0.1621
    --------------------------------------------
      LOOP:  cpu time      3.9991: real time      4.0457

 eigenvalue-minimisations  :     0
 total energy-change (2. order) :-0.3406450E+01  (-0.8531281E+00)
 number of electron     156.0000020 magnetization      21.8641542
 augmentation part       84.5120401 magnetization      16.3868333

 Free energy of the ion-electron system (eV)
  ---------------------------------------------------
  alpha Z        PSCENC =      1149.93330786
  Ewald energy   TEWEN  =    -18412.59496304
  -Hartree energ DENC   =     -5424.82169149
  -exchange      EXHF   =         0.00000000
  -V(xc)+E(xc)   XCENC  =       642.25468975
  PAW double counting   =     22506.36862652   -23285.55704404
  entropy T*S    EENTRO =         0.00222556
  eigenvalues    EBANDS =     -1570.01979696
  atomic energy  EATOM  =     24304.10294433
  ---------------------------------------------------
  free energy    TOTEN  =       -90.33522596 eV

  energy without entropy =      -90.33745152  energy(sigma->0) =      -90.33596781


--------------------------------------------------------------------------------------------------------




--------------------------------------- Iteration      1(   9)  ---------------------------------------


    POTLOK:  cpu time      0.0221: real time      0.0223
    SETDIJ:  cpu time      0.0073: real time      0.0073
    TRIAL :  cpu time      2.7334: real time      2.7609
    CORREC:  cpu time      1.0877: real time      1.1017
    CHARGE:  cpu time      0.1598: real time      0.1607
    --------------------------------------------
      LOOP:  cpu time      4.0273: real time      4.0753

 eigenvalue-minimisations  :     0
 total energy-change (2. order) :-0.1086765E+01  (-0.1931805E+00)
 number of electron     156.0000020 magnetization      21.9477144
 augmentation part       84.5398046 magnetization      16.4553154

 Free energy of the ion-electron system (eV)
  ---------------------------------------------------
  alpha Z        PSCENC =      1149.93330786
  Ewald energy   TEWEN  =    -18412.59496304
  -Hartree energ DENC   =     -5446.19616223
  -exchange      EXHF   =         0.00000000
  -V(xc)+E(xc)   XCENC  =       643.41402383
  PAW double counting   =     22561.80899877   -23339.74422691
  entropy T*S    EENTRO =         0.00349471
  eigenvalues    EBANDS =     -1552.14813931
  atomic energy  EATOM  =     24304.10294433
  ---------------------------------------------------
  free energy    TOTEN  =       -91.42199114 eV

  energy without entropy =      -91.42548585  energy(sigma->0) =      -91.42315604


--------------------------------------------------------------------------------------------------------




--------------------------------------- Iteration      1(  10)  ---------------------------------------


    POTLOK:  cpu time      0.0217: real time      0.0219
    SETDIJ:  cpu time      0.0080: real time      0.0080
    TRIAL :  cpu time      2.6838: real time      2.7120
    CORREC:  cpu time      1.3476: real time      1.3623
    CHARGE:  cpu time      0.1560: real time      0.1570
    --------------------------------------------
      LOOP:  cpu time      4.2355: real time      4.2841

 eigenvalue-minimisations  :     0
 total energy-change (2. order) :-0.1775836E+00  (-0.6645500E+00)
 number of electron     156.0000020 magnetization      22.5104089
 augmentation part       84.6380987 magnetization      16.9095398

 Free energy of the ion-electron system (eV)
  ---------------------------------------------------
  alpha Z        PSCENC =      1149.93330786
  Ewald energy   TEWEN  =    -18412.59496304
  -Hartree energ DENC   =     -5449.18745168
  -exchange      EXHF   =         0.00000000
  -V(xc)+E(xc)   XCENC  =       643.59248933
  PAW double counting   =     22564.82722284   -23341.39237507
  entropy T*S    EENTRO =         0.01411280
  eigenvalues    EBANDS =     -1550.88424404
  atomic energy  EATOM  =     24304.10294433
  ---------------------------------------------------
  free energy    TOTEN  =       -91.59957478 eV

  energy without entropy =      -91.61368758  energy(sigma->0) =      -91.60427904


--------------------------------------------------------------------------------------------------------




--------------------------------------- Iteration      1(  11)  ---------------------------------------


    POTLOK:  cpu time      0.0215: real time      0.0217
    SETDIJ:  cpu time      0.0081: real time      0.0081
    TRIAL :  cpu time      2.6859: real time      2.7143
    CORREC:  cpu time      1.1549: real time      1.1669
    CHARGE:  cpu time      0.1562: real time      0.1571
    --------------------------------------------
      LOOP:  cpu time      4.0442: real time      4.0910

 eigenvalue-minimisations  :     0
 total energy-change (2. order) :-0.6660861E+00  (-0.2379297E+00)
 number of electron     156.0000021 magnetization      22.6875503
 augmentation part       84.6762452 magnetization      17.0550712

 Free energy of the ion-electron system (eV)
  ---------------------------------------------------
  alpha Z        PSCENC =      1149.93330786
  Ewald energy   TEWEN  =    -18412.59496304
  -Hartree energ DENC   =     -5461.29258049
  -exchange      EXHF   =         0.00000000
  -V(xc)+E(xc)   XCENC  =       644.36797327
  PAW double counting   =     22554.64626608   -23319.61930300
  entropy T*S    EENTRO =         0.02128401
  eigenvalues    EBANDS =     -1551.82341869
  atomic energy  EATOM  =     24304.10294433
  ---------------------------------------------------
  free energy    TOTEN  =       -92.26566088 eV

  energy without entropy =      -92.28694489  energy(sigma->0) =      -92.27275555


--------------------------------------------------------------------------------------------------------




--------------------------------------- Iteration      1(  12)  ---------------------------------------


    POTLOK:  cpu time      0.0218: real time      0.0220
    SETDIJ:  cpu time      0.0080: real time      0.0081
    TRIAL :  cpu time      2.6566: real time      2.6851
    CORREC:  cpu time      1.0885: real time      1.1002
    CHARGE:  cpu time      0.1563: real time      0.1572
    --------------------------------------------
      LOOP:  cpu time      3.9491: real time      3.9952

 eigenvalue-minimisations  :     0
 total energy-change (2. order) :-0.3687416E+00  (-0.2318335E+00)
 number of electron     156.0000021 magnetization      22.7076961
 augmentation part       84.6929316 magnetization      17.0726134

 Free energy of the ion-electron system (eV)
  ---------------------------------------------------
  alpha Z        PSCENC =      1149.93330786
  Ewald energy   TEWEN  =    -18412.59496304
  -Hartree energ DENC   =     -5465.91931286
  -exchange      EXHF   =         0.00000000
  -V(xc)+E(xc)   XCENC  =       644.65803349
  PAW double counting   =     22556.51392940   -23318.00740671
  entropy T*S    EENTRO =         0.02197929
  eigenvalues    EBANDS =     -1551.34221892
  atomic energy  EATOM  =     24304.10294433
  ---------------------------------------------------
  free energy    TOTEN  =       -92.63440244 eV

  energy without entropy =      -92.65638174  energy(sigma->0) =      -92.64172887


--------------------------------------------------------------------------------------------------------




--------------------------------------- Iteration      1(  13)  ---------------------------------------


    POTLOK:  cpu time      0.0210: real time      0.0212
    SETDIJ:  cpu time      0.0082: real time      0.0082
    TRIAL :  cpu time      2.7430: real time      2.7731
    CORREC:  cpu time      1.0991: real time      1.1107
    CHARGE:  cpu time      0.1558: real time      0.1567
    --------------------------------------------
      LOOP:  cpu time      4.0432: real time      4.0925

 eigenvalue-minimisations  :     0
 total energy-change (2. order) :-0.2313752E+00  (-0.1455365E+00)
 number of electron     156.0000021 magnetization      22.8604973
 augmentation part       84.8170536 magnetization      17.2097786

 Free energy of the ion-electron system (eV)
  ---------------------------------------------------
  alpha Z        PSCENC =      1149.93330786
  Ewald energy   TEWEN  =    -18412.59496304
  -Hartree energ DENC   =     -5468.57669922
  -exchange      EXHF   =         0.00000000
  -V(xc)+E(xc)   XCENC  =       644.77561423
  PAW double counting   =     22558.50693571   -23320.53176802
  entropy T*S    EENTRO =         0.02068889
  eigenvalues    EBANDS =     -1548.50312875
  atomic energy  EATOM  =     24304.10294433
  ---------------------------------------------------
  free energy    TOTEN  =       -92.86577761 eV

  energy without entropy =      -92.88646650  energy(sigma->0) =      -92.87267391


--------------------------------------------------------------------------------------------------------




--------------------------------------- Iteration      1(  14)  ---------------------------------------


    POTLOK:  cpu time      0.0214: real time      0.0216
    SETDIJ:  cpu time      0.0080: real time      0.0081
    TRIAL :  cpu time      2.7891: real time      2.8181
    CORREC:  cpu time      1.0951: real time      1.1065
    CHARGE:  cpu time      0.1543: real time      0.1551
    --------------------------------------------
      LOOP:  cpu time      4.0857: real time      4.1325

 eigenvalue-minimisations  :     0
 total energy-change (2. order) :-0.1455827E+00  (-0.7718545E-01)
 number of electron     156.0000021 magnetization      23.0524069
 augmentation part       84.8561554 magnetization      17.3672797

 Free energy of the ion-electron system (eV)
  ---------------------------------------------------
  alpha Z        PSCENC =      1149.93330786
  Ewald energy   TEWEN  =    -18412.59496304
  -Hartree energ DENC   =     -5489.34116763
  -exchange      EXHF   =         0.00000000
  -V(xc)+E(xc)   XCENC  =       645.65976092
  PAW double counting   =     22573.13208013   -23339.02289394
  entropy T*S    EENTRO =         0.02142905
  eigenvalues    EBANDS =     -1524.90111785
  atomic energy  EATOM  =     24304.10294433
  ---------------------------------------------------
  free energy    TOTEN  =       -93.01136033 eV

  energy without entropy =      -93.03278938  energy(sigma->0) =      -93.01850334


--------------------------------------------------------------------------------------------------------




--------------------------------------- Iteration      1(  15)  ---------------------------------------


    POTLOK:  cpu time      0.0217: real time      0.0219
    SETDIJ:  cpu time      0.0080: real time      0.0080
    TRIAL :  cpu time      2.6903: real time      2.7176
    CORREC:  cpu time      1.1337: real time      1.1463
    CHARGE:  cpu time      0.1563: real time      0.1571
    --------------------------------------------
      LOOP:  cpu time      4.0280: real time      4.0742

 eigenvalue-minimisations  :     0
 total energy-change (2. order) :-0.7665013E-01  (-0.3071117E-01)
 number of electron     156.0000021 magnetization      23.1828051
 augmentation part       84.8509971 magnetization      17.4728254

 Free energy of the ion-electron system (eV)
  ---------------------------------------------------
  alpha Z        PSCENC =      1149.93330786
  Ewald energy   TEWEN  =    -18412.59496304
  -Hartree energ DENC   =     -5493.52037434
  -exchange      EXHF   =         0.00000000
  -V(xc)+E(xc)   XCENC  =       645.95448499
  PAW double counting   =     22563.05320029   -23329.39741056
  entropy T*S    EENTRO =         0.02220219
  eigenvalues    EBANDS =     -1520.64062903
  atomic energy  EATOM  =     24304.10294433
  ---------------------------------------------------
  free energy    TOTEN  =       -93.08801046 eV

  energy without entropy =      -93.11021264  energy(sigma->0) =      -93.09541119


--------------------------------------------------------------------------------------------------------




--------------------------------------- Iteration      1(  16)  ---------------------------------------


    POTLOK:  cpu time      0.0214: real time      0.0216
    SETDIJ:  cpu time      0.0076: real time      0.0077
    TRIAL :  cpu time      2.6740: real time      2.7018
    CORREC:  cpu time      1.1852: real time      1.1987
    CHARGE:  cpu time      0.1579: real time      0.1588
    --------------------------------------------
      LOOP:  cpu time      4.0640: real time      4.1119

 eigenvalue-minimisations  :     0
 total energy-change (2. order) :-0.2966394E-01  (-0.5626473E-01)
 number of electron     156.0000021 magnetization      23.4780987
 augmentation part       84.8278093 magnetization      17.7175474

 Free energy of the ion-electron system (eV)
  ---------------------------------------------------
  alpha Z        PSCENC =      1149.93330786
  Ewald energy   TEWEN  =    -18412.59496304
  -Hartree energ DENC   =     -5490.34674429
  -exchange      EXHF   =         0.00000000
  -V(xc)+E(xc)   XCENC  =       645.93554386
  PAW double counting   =     22551.11353343   -23316.49404410
  entropy T*S    EENTRO =         0.02365950
  eigenvalues    EBANDS =     -1524.78945463
  atomic energy  EATOM  =     24304.10294433
  ---------------------------------------------------
  free energy    TOTEN  =       -93.11767439 eV

  energy without entropy =      -93.14133390  energy(sigma->0) =      -93.12556089


--------------------------------------------------------------------------------------------------------




--------------------------------------- Iteration      1(  17)  ---------------------------------------


    POTLOK:  cpu time      0.0213: real time      0.0216
    SETDIJ:  cpu time      0.0082: real time      0.0082
    TRIAL :  cpu time      2.7086: real time      2.7387
    CORREC:  cpu time      1.0989: real time      1.1107
    CHARGE:  cpu time      0.1559: real time      0.1567
    --------------------------------------------
      LOOP:  cpu time      4.0084: real time      4.0582

 eigenvalue-minimisations  :     0
 total energy-change (2. order) :-0.5537355E-01  (-0.2647893E-01)
 number of electron     156.0000021 magnetization      23.6749175
[...]
     61       9.7150      1.00000
     62       9.7173      1.00000
     63      10.0782      1.01782
     64      10.0963      1.02186
     65      10.1180      1.02683
     66      10.1297      1.02938
     67      10.2488      1.00491
     68      10.2652      0.98567
     69      10.2786      0.96522
     70      10.5354      0.09409
     71      10.5358      0.09374
     72      10.5689      0.02744
     73      10.5697      0.02732
     74      10.7737     -0.01594
     75      10.7741     -0.01593
     76      11.6454     -0.00000
     77      11.6471     -0.00000
     78      11.7877     -0.00000
     79      11.7881     -0.00000
     80      11.8203     -0.00000
     81      11.8218     -0.00000
     82      12.0351     -0.00000
     83      12.0359     -0.00000
     84      12.3038     -0.00000
     85      12.3481     -0.00000
     86      12.4835     -0.00000
     87      12.4955     -0.00000
     88      12.5492     -0.00000
     89      12.5820     -0.00000
     90      12.6396     -0.00000
     91      12.6422     -0.00000
     92      13.1171     -0.00000
     93      13.1173     -0.00000
     94      13.5750     -0.00000
     95      13.5751     -0.00000
     96      13.5840     -0.00000
     97      13.5851     -0.00000
     98      14.1146     -0.00000
     99      14.1153     -0.00000
    100      16.6880      0.00000
    101      18.6579      0.00000
    102      18.7262      0.00000
    103      18.7717      0.00000
    104      19.5885      0.00000
    105      19.5904      0.00000
    106      20.2944      0.00000
    107      20.2950      0.00000
    108      20.8418      0.00000
    109      20.8429      0.00000
    110      21.3516      0.00000
    111      21.3522      0.00000
    112      25.7845      0.00000
    113      25.7866      0.00000
    114      26.2359      0.00000
    115      26.2368      0.00000
    116      26.6108      0.00000
    117      26.6120      0.00000
    118      27.5176      0.00000
    119      27.5194      0.00000
    120      28.2435      0.00000
    121      28.2482      0.00000
    122      28.2961      0.00000
    123      28.7509      0.00000
    124      29.9344      0.00000
    125      29.9350      0.00000
    126      30.3433      0.00000
    127      30.3441      0.00000
    128      31.0938      0.00000


--------------------------------------------------------------------------------------------------------


 soft charge-density along one line, spin component           1
         0         1         2         3         4         5         6         7         8         9
 total charge-density along one line
 
 soft charge-density along one line, spin component           2
         0         1         2         3         4         5         6         7         8         9
 total charge-density along one line
 
 pseudopotential strength for first ion, spin component:           1
-44.532  -0.000  -0.000   7.434   0.000   0.000  -0.000   0.000
 -0.000 -44.532   0.000   0.000   7.434  -0.000   0.000   0.000
 -0.000   0.000 -44.423   0.000  -0.000   7.389   0.000   0.000
  7.434   0.000   0.000   5.675   0.000   0.000   0.000  -0.000
  0.000   7.434  -0.000   0.000   5.675  -0.000  -0.000  -0.000
  0.000  -0.000   7.389   0.000  -0.000   5.683  -0.000  -0.000
 -0.000   0.000   0.000   0.000  -0.000  -0.000  -1.684   0.000
  0.000   0.000   0.000  -0.000  -0.000  -0.000   0.000  -1.768
 -0.000   0.000   0.000   0.000  -0.000  -0.000   0.000  -0.000
  0.000  -0.000   0.000  -0.000  -0.000  -0.000  -0.000  -0.000
 -0.000  -0.000  -0.000   0.000   0.000   0.000   0.000   0.000
 -0.000   0.000   0.000   0.000  -0.000  -0.000  -2.203   0.000
  0.000   0.000   0.000  -0.000  -0.000  -0.000   0.000  -2.286
 -0.000   0.000   0.000   0.000  -0.000  -0.000   0.000  -0.000
  0.000  -0.000   0.000  -0.000   0.000  -0.000  -0.000  -0.000
 -0.000  -0.000  -0.000   0.000   0.000   0.000   0.000   0.000
 -0.000  -0.000   0.000  -0.000  -0.000   0.000   0.000   0.000
 -0.000  -0.000   0.000  -0.000  -0.000   0.000   0.000   0.000
 pseudopotential strength for first ion, spin component:           2
-42.267  -0.000   0.000   6.480   0.000  -0.000   0.000   0.000
 -0.000 -42.268   0.000   0.000   6.480  -0.000  -0.000   0.000
  0.000   0.000 -42.201  -0.000  -0.000   6.452   0.000  -0.000
  6.480   0.000  -0.000   5.940   0.000  -0.000   0.000  -0.000
  0.000   6.480  -0.000   0.000   5.940  -0.000   0.000  -0.000
 -0.000  -0.000   6.452  -0.000  -0.000   5.946  -0.000   0.000
  0.000  -0.000   0.000   0.000   0.000  -0.000   0.109   0.000
  0.000   0.000  -0.000  -0.000  -0.000   0.000   0.000   0.070
 -0.000   0.000   0.000   0.000  -0.000  -0.000  -0.000  -0.000
 -0.000   0.000   0.000   0.000  -0.000  -0.000  -0.000  -0.000
 -0.000  -0.000   0.000   0.000   0.000   0.000   0.000   0.000
  0.000  -0.000   0.000   0.000   0.000  -0.000  -0.440   0.000
  0.000   0.000  -0.000  -0.000  -0.000   0.000   0.000  -0.478
 -0.000   0.000   0.000   0.000  -0.000   0.000  -0.000  -0.000
 -0.000  -0.000   0.000   0.000   0.000  -0.000  -0.000  -0.000
 -0.000  -0.000   0.000   0.000   0.000   0.000   0.000   0.000
 -0.000  -0.000   0.000  -0.000  -0.000  -0.000  -0.000   0.000
 -0.000  -0.000   0.000  -0.000  -0.000  -0.000  -0.000   0.000
 total augmentation occupancy for first ion, spin component:           1
  1.992  -0.000   0.000  -0.025  -0.000   0.000  -0.000   0.000  -0.000   0.000   0.000  -0.000  -0.000  -0.000  -0.000   0.000
 -0.000   1.992  -0.000  -0.000  -0.025  -0.000   0.000  -0.000   0.000   0.000  -0.000   0.000   0.000  -0.000   0.000   0.000
  0.000  -0.000   1.992   0.000   0.000  -0.025   0.000  -0.000   0.000   0.000   0.000   0.000   0.000  -0.000  -0.000   0.000
 -0.025  -0.000   0.000   0.197   0.000   0.000   0.000   0.000   0.000   0.000   0.000  -0.000  -0.001   0.000   0.000  -0.000
 -0.000  -0.025   0.000   0.000   0.197  -0.000   0.000   0.000   0.000  -0.000  -0.000   0.000   0.000  -0.000  -0.000   0.000
  0.000  -0.000  -0.025   0.000  -0.000   0.176  -0.000   0.000  -0.000   0.000   0.000   0.000   0.000   0.000  -0.000   0.000
 -0.000   0.000   0.000   0.000   0.000  -0.000   3.043   0.000   0.000  -0.000   0.000  -1.812   0.000   0.000  -0.000   0.000
  0.000  -0.000  -0.000   0.000   0.000   0.000   0.000   3.331   0.000  -0.000   0.000   0.000  -2.386   0.000  -0.000  -0.000
 -0.000   0.000   0.000   0.000   0.000  -0.000   0.000   0.000   3.487   0.000   0.167   0.000  -0.000  -2.136   0.000  -0.087
  0.000   0.000   0.000   0.000  -0.000   0.000  -0.000  -0.000   0.000   3.056   0.000  -0.000   0.000  -0.000  -1.821  -0.000
  0.000  -0.000   0.000   0.000  -0.000   0.000   0.000   0.000   0.167   0.000   3.305   0.000   0.000  -0.087   0.000  -2.042
 -0.000   0.000   0.000  -0.000   0.000   0.000  -1.812   0.000   0.000  -0.000   0.000   1.993   0.000   0.000   0.000   0.000
 -0.000   0.000   0.000  -0.001   0.000   0.000   0.000  -2.386  -0.000   0.000   0.000   0.000   2.740   0.000  -0.000   0.000
 -0.000  -0.000  -0.000   0.000  -0.000   0.000   0.000   0.000  -2.136  -0.000  -0.087   0.000   0.000   2.058  -0.000   0.014
 -0.000   0.000  -0.000   0.000  -0.000  -0.000  -0.000  -0.000   0.000  -1.821   0.000   0.000  -0.000  -0.000   1.999   0.000
  0.000   0.000   0.000  -0.000   0.000   0.000   0.000  -0.000  -0.087  -0.000  -2.042   0.000   0.000   0.014   0.000   2.045
  0.000   0.000  -0.000   0.000  -0.000   0.000   0.000   0.000  -0.115  -0.000   0.199   0.000   0.000   0.086   0.000  -0.150
 -0.000  -0.000  -0.000   0.000   0.000   0.000   0.000   0.000   0.007   0.000  -0.013  -0.000   0.000  -0.005   0.000   0.009
 total augmentation occupancy for first ion, spin component:           2
 -0.002  -0.000   0.000  -0.009   0.000   0.000   0.000  -0.000   0.000  -0.000  -0.000  -0.000   0.000  -0.000   0.000   0.000
 -0.000  -0.002  -0.000   0.000  -0.009   0.000   0.000   0.000  -0.000   0.000   0.000   0.000  -0.000   0.000   0.000  -0.000
  0.000  -0.000  -0.002   0.000   0.000  -0.010   0.000  -0.000  -0.000  -0.000   0.000  -0.000  -0.000   0.000   0.000   0.000
 -0.009   0.000   0.000  -0.005   0.000   0.000   0.000   0.000  -0.000   0.000  -0.000   0.000  -0.000  -0.000   0.000   0.000
  0.000  -0.009   0.000   0.000  -0.005   0.000  -0.000   0.000   0.000   0.000  -0.000  -0.000   0.000  -0.000   0.000   0.000
  0.000   0.000  -0.010   0.000   0.000  -0.010   0.000   0.000   0.000   0.000  -0.000   0.000  -0.000   0.000  -0.000  -0.000
  0.000   0.000   0.000   0.000  -0.000   0.000   2.388   0.000  -0.000   0.000  -0.000  -1.048  -0.000   0.000   0.000   0.000
 -0.000   0.000  -0.000   0.000   0.000   0.000   0.000   2.267   0.000  -0.000   0.000   0.000  -0.884  -0.000   0.000  -0.000
  0.000  -0.000  -0.000  -0.000   0.000   0.000  -0.000   0.000   2.704  -0.000   0.088   0.000  -0.000  -1.143   0.000  -0.091
 -0.000   0.000  -0.000   0.000   0.000   0.000   0.000  -0.000  -0.000   2.400  -0.000  -0.000  -0.000   0.000  -1.055  -0.000
 -0.000   0.000   0.000  -0.000  -0.000  -0.000  -0.000   0.000   0.088  -0.000   2.614   0.000   0.000  -0.091  -0.000  -1.045
 -0.000   0.000  -0.000   0.000  -0.000   0.000  -1.048   0.000   0.000  -0.000   0.000   0.250   0.000   0.000   0.000  -0.000
  0.000  -0.000  -0.000  -0.000   0.000  -0.000  -0.000  -0.884  -0.000  -0.000   0.000   0.000   0.076   0.000  -0.000  -0.000
 -0.000   0.000   0.000  -0.000  -0.000   0.000   0.000  -0.000  -1.143   0.000  -0.091   0.000   0.000   0.334   0.000   0.105
  0.000   0.000   0.000   0.000   0.000  -0.000   0.000   0.000   0.000  -1.055  -0.000   0.000  -0.000   0.000   0.255  -0.000
  0.000  -0.000   0.000   0.000   0.000  -0.000   0.000  -0.000  -0.091  -0.000  -1.045  -0.000  -0.000   0.105  -0.000   0.217
  0.000  -0.000  -0.000  -0.000  -0.000   0.000   0.000   0.000  -0.030  -0.000   0.054   0.000   0.000   0.030  -0.000  -0.054
  0.000   0.000   0.000   0.000  -0.000   0.000  -0.000   0.000   0.003  -0.000  -0.005   0.000  -0.000  -0.001   0.000   0.001


------------------------ aborting loop because EDIFF is reached ----------------------------------------





 total charge

# of ion       s       p       d       tot
------------------------------------------
    1        0.362   6.356   6.060  12.778
    2        0.362   6.356   6.060  12.778
    3        0.362   6.356   6.060  12.778
    4        0.362   6.357   6.060  12.779
    5        0.362   6.356   6.059  12.778
    6        0.362   6.356   6.059  12.778
    7        0.362   6.356   6.060  12.778
    8        0.362   6.356   6.060  12.778
    9        0.362   6.356   6.060  12.778
   10        0.790   0.764   8.064   9.618
   11        0.790   0.764   8.064   9.617
   12        0.790   0.764   8.064   9.617
--------------------------------------------------
tot          5.628  59.500  78.730 143.858



 magnetization (x)

# of ion       s       p       d       tot
------------------------------------------
    1       -0.003  -0.016   2.639   2.621
    2       -0.003  -0.016   2.640   2.621
    3       -0.003  -0.016   2.639   2.621
    4       -0.003  -0.016   2.637   2.618
    5       -0.003  -0.016   2.639   2.620
    6       -0.003  -0.016   2.639   2.620
    7       -0.003  -0.016   2.639   2.621
    8       -0.003  -0.016   2.640   2.621
    9       -0.003  -0.016   2.639   2.621
   10       -0.040  -0.100   0.428   0.288
   11       -0.040  -0.100   0.428   0.288
   12       -0.040  -0.100   0.428   0.288
--------------------------------------------------
tot         -0.146  -0.441  25.034  24.447
 
    FORLOC:  cpu time      0.0011: real time      0.0011
    FORNL :  cpu time      0.6921: real time      0.6962
    STRESS:  cpu time      4.1422: real time      4.1768
    FORCOR:  cpu time      0.0206: real time      0.0208
    OFIELD:  cpu time      0.0001: real time      0.0001

  FORCE on cell =-STRESS in cart. coord.  units (eV):
  Direction    XX          YY          ZZ          XY          YZ          ZX
  --------------------------------------------------------------------------------------
  Alpha Z  1149.93331  1149.93331  1149.93331
  Ewald   -6137.19701 -6137.19701 -6138.22000    -0.00000     0.00000     0.00000
  Hartree  1831.08060  1831.08060  1830.49934    -0.00000    -0.00000    -0.00000
  E(xc)    -946.33985  -946.33985  -946.33893    -0.00000    -0.00000     0.00000
  Local    1178.70659  1178.70659  1180.24796     0.00000    -0.00000    -0.00000
  n-local  -203.31442  -217.31860  -210.27201    15.82739    -0.07058    -0.04777
  augment  1437.20351  1437.20351  1437.19580     0.00000     0.00000     0.00000
  Kinetic  1710.86951  1702.79016  1706.82127     0.93023     0.28539     0.78807
  Fock        0.00000     0.00000     0.00000     0.00000     0.00000     0.00000
  -------------------------------------------------------------------------------------
  Total       9.90048     9.90048     9.86673     0.00000    -0.00000     0.00000
  in kB     107.17791   107.17791   106.81250     0.00000    -0.00000     0.00000
  external pressure =      107.06 kB  Pullay stress =        0.00 kB


 VOLUME and BASIS-vectors are now :
 -----------------------------------------------------------------------------
  energy-cutoff  :      520.00
  volume of cell :      148.00
      direct lattice vectors                 reciprocal lattice vectors
     3.666471447  0.000000000  0.000000000     0.272741794  0.000000000  0.000000000
     0.000000000  3.666471447  0.000000000     0.000000000  0.272741794  0.000000000
     0.000000000  0.000000000 11.009436753     0.000000000  0.000000000  0.090831168

  length of vectors
     3.666471447  3.666471447 11.009436753     0.272741794  0.272741794  0.090831168


 FORCES acting on ions:
    Electron-Ion                     Ewald-Force                    Non-Local-Force
 -----------------------------------------------------------------------------------------------
   -.832E-13 0.108E-11 -.150E+01   -.226E-13 -.394E-14 0.149E+01   0.285E-21 0.289E-21 -.348E-03
   -.827E-13 0.113E-11 0.315E-11   -.264E-13 -.129E-13 0.284E-12   -.166E-23 -.183E-23 0.442E-25
   -.828E-13 0.837E-12 0.150E+01   -.182E-14 -.370E-13 -.149E+01   -.319E-21 0.147E-21 0.348E-03
   0.108E-11 0.792E-11 0.462E-11   -.100E-13 0.141E-13 -.114E-12   -.565E-23 0.700E-23 -.399E-23
   0.108E-11 -.432E-11 -.145E+01   0.101E-13 0.192E-14 0.145E+01   0.551E-20 -.630E-21 -.805E-03
   0.108E-11 -.498E-11 0.145E+01   -.525E-13 0.796E-15 -.145E+01   -.287E-20 0.514E-21 0.805E-03
   0.108E-11 -.543E-13 -.150E+01   0.919E-15 0.248E-13 0.149E+01   -.147E-21 -.493E-21 -.348E-03
   0.108E-11 -.627E-13 0.588E-11   0.163E-13 0.178E-13 0.284E-12   -.694E-24 -.847E-24 0.162E-23
   0.107E-11 -.716E-13 0.150E+01   0.475E-14 -.658E-14 -.149E+01   -.369E-21 0.358E-21 0.348E-03
   -.537E-13 -.517E-13 -.289E-12   0.157E-13 -.123E-13 0.000E+00   -.530E-23 0.943E-23 0.334E-23
   -.531E-13 -.512E-13 -.717E+00   0.345E-14 0.103E-13 0.715E+00   -.189E-20 0.589E-21 -.632E-02
   -.529E-13 -.511E-13 0.717E+00   0.423E-13 -.174E-13 -.715E+00   0.159E-20 -.339E-21 0.632E-02
 -----------------------------------------------------------------------------------------------
   0.610E-11 0.133E-11 0.321E-10   -.199E-13 -.203E-13 -.162E-12   0.178E-20 0.449E-21 0.867E-18
 
 
 POSITION                                       TOTAL-FORCE (eV/Angst)
 -----------------------------------------------------------------------------------
      0.00000      1.83324      1.83430        -0.000000     -0.000000     -0.000925
      0.00000      1.83324      5.50472        -0.000000     -0.000000      0.000000
      0.00000      1.83324      9.17514        -0.000000     -0.000000      0.000925
      1.83324      1.83324      0.00000         0.000000      0.000000      0.000000
      1.83324      1.83324      3.66902        -0.000000      0.000000     -0.006647
      1.83324      1.83324      7.34042         0.000000      0.000000      0.006647
      1.83324      0.00000      1.83430        -0.000000     -0.000000     -0.000925
      1.83324      0.00000      5.50472        -0.000000     -0.000000      0.000000
      1.83324      0.00000      9.17514        -0.000000     -0.000000      0.000925
      0.00000      0.00000      0.00000        -0.000000     -0.000000      0.000000
      0.00000      0.00000      3.66972        -0.000000     -0.000000     -0.007509
      0.00000      0.00000      7.33972        -0.000000     -0.000000      0.007509
 -----------------------------------------------------------------------------------
    total drift:                                0.000000      0.000000      0.000000


--------------------------------------------------------------------------------------------------------



  FREE ENERGIE OF THE ION-ELECTRON SYSTEM (eV)
  ---------------------------------------------------
  free  energy   TOTEN  =       -93.25213456 eV

  energy  without entropy=      -93.26687784  energy(sigma->0) =      -93.25704899
 


--------------------------------------------------------------------------------------------------------


    POTLOK:  cpu time      0.0367: real time      0.0369


--------------------------------------------------------------------------------------------------------




--------------------------------------------------------------------------------------------------------


  
 reached required accuracy - stopping structural energy minimisation
     LOOP+:  cpu time    168.5859: real time    170.6178
    4ORBIT:  cpu time      0.0000: real time      0.0000



 total charge

# of ion       s       p       d       tot
------------------------------------------
    1        0.362   6.356   6.060  12.778
    2        0.362   6.356   6.060  12.778
    3        0.362   6.356   6.060  12.778
    4        0.362   6.357   6.060  12.779
    5        0.362   6.356   6.059  12.778
    6        0.362   6.356   6.059  12.778
    7        0.362   6.356   6.060  12.778
    8        0.362   6.356   6.060  12.778
    9        0.362   6.356   6.060  12.778
   10        0.790   0.764   8.064   9.618
   11        0.790   0.764   8.064   9.617
   12        0.790   0.764   8.064   9.617
--------------------------------------------------
tot          5.628  59.500  78.730 143.858



 magnetization (x)

# of ion       s       p       d       tot
------------------------------------------
    1       -0.003  -0.016   2.639   2.621
    2       -0.003  -0.016   2.640   2.621
    3       -0.003  -0.016   2.639   2.621
    4       -0.003  -0.016   2.637   2.618
    5       -0.003  -0.016   2.639   2.620
    6       -0.003  -0.016   2.639   2.620
    7       -0.003  -0.016   2.639   2.621
    8       -0.003  -0.016   2.640   2.621
    9       -0.003  -0.016   2.639   2.621
   10       -0.040  -0.100   0.428   0.288
   11       -0.040  -0.100   0.428   0.288
   12       -0.040  -0.100   0.428   0.288
--------------------------------------------------
tot         -0.146  -0.441  25.034  24.447
 

 total amount of memory used by VASP MPI-rank0   273670. kBytes
=======================================================================

   base      :      30000. kBytes
   nonl-proj :      98316. kBytes
   fftplans  :        888. kBytes
   grid      :       6813. kBytes
   one-center:        373. kBytes
   wavefun   :     137280. kBytes
 
  
  
 General timing and accounting informations for this job:
 ========================================================
  
                  Total CPU time used (sec):      187.154
                            User time (sec):      180.507
                          System time (sec):        6.648
                         Elapsed time (sec):      195.277
  
                   Maximum memory used (kb):     1136188.
                   Average memory used (kb):          N/A
  
                          Minor page faults:       158890
                          Major page faults:          499
                 Voluntary context switches:         9029
