 vasp.6.4.3 19Mar24 (build Mar 26 2024 14:05:37) complex                        
  
 executed on             LinuxIFC date 2024.12.16  08:39:27
 running  128 mpi-ranks, on    1 nodes
 distrk:  each k-point on   32 cores,    4 groups
 distr:  one band on NCORE=   1 cores,   32 groups


--------------------------------------------------------------------------------------------------------


 INCAR:
   ALGO = Normal
   EDIFF = 1e-06
   EDIFFG = -0.01
   ENCUT = 520
   GGA = Pe
   IBRION = -1
   ISIF = 4
   ISMEAR = -5
   ISPIN = 2
   KPAR = 4
   LCHARG = True
   LORBIT = 11
   LREAL = False
   LWAVE = False
   MAGMOM = 3*2.621 1*2.618 2*2.62 3*2.621 3*0.288
   NELM = 200
   NSW = 0
   PREC = Accurate
   SIGMA = 0.2

 POTCAR:    PAW_PBE Fe_pv 02Aug2007               
 POTCAR:    PAW_PBE Pt 04Feb2005                  
 -----------------------------------------------------------------------------
|                                                                             |
|           W    W    AA    RRRRR   N    N  II  N    N   GGGG   !!!           |
|           W    W   A  A   R    R  NN   N  II  NN   N  G    G  !!!           |
|           W    W  A    A  R    R  N N  N  II  N N  N  G       !!!           |
|           W WW W  AAAAAA  RRRRR   N  N N  II  N  N N  G  GGG   !            |
|           WW  WW  A    A  R   R   N   NN  II  N   NN  G    G                |
|           W    W  A    A  R    R  N    N  II  N    N   GGGG   !!!           |
|                                                                             |
|     For optimal performance we recommend to set                             |
|       NCORE = 2 up to number-of-cores-per-socket                            |
|     NCORE specifies how many cores store one orbital (NPAR=cpu/NCORE).      |
|     This setting can greatly improve the performance of VASP for DFT.       |
|     The default, NCORE=1 might be grossly inefficient on modern             |
|     multi-core architectures or massively parallel machines. Do your        |
|     own testing! More info at https://www.vasp.at/wiki/index.php/NCORE      |
|     Unfortunately you need to use the default for GW and RPA                |
|     calculations (for HF NCORE is supported but not extensively tested      |
|     yet).                                                                   |
|                                                                             |
 -----------------------------------------------------------------------------

 POTCAR:    PAW_PBE Fe_pv 02Aug2007               
   SHA256 =  5d22e414b1f82158bf2c7ecb8b97b28fd0923e48cadc1c3bf74d524558f5dd32 Fe_pv/POTCAR          
   COPYR  = (c) Copyright 02Aug2007 Georg Kresse                                                    
   COPYR  = This file is part of the software VASP. Any use, copying, and all other rights are regul
   COPYR  = If you do not have a valid VASP license, you may not use, copy or distribute this file. 
   VRHFIN =Fe:  3pd7s1                                                                              
   LEXCH  = PE                                                                                      
   EATOM  =  2457.4239 eV,  180.6156 Ry                                                             
                                                                                                    
   TITEL  = PAW_PBE Fe_pv 02Aug2007                                                                 
   LULTRA =        F    use ultrasoft PP ?                                                          
   IUNSCR =        1    unscreen: 0-lin 1-nonlin 2-no                                               
   RPACOR =    1.750    partial core radius                                                         
   POMASS =   55.847; ZVAL   =   14.000    mass and valenz                                          
   RCORE  =    2.200    outmost cutoff radius                                                       
   RWIGS  =    2.200; RWIGS  =    1.164    wigner-seitz radius (au A)                               
   ENMAX  =  293.238; ENMIN  =  219.928 eV                                                          
   ICORE  =        3    local potential                                                             
   LCOR   =        T    correct aug charges                                                         
   LPAW   =        T    paw PP                                                                      
   EAUG   =  578.342                                                                                
   DEXC   =    0.000                                                                                
   RMAX   =    2.249    core radius for proj-oper                                                   
   RAUG   =    1.300    factor for augmentation sphere                                              
   RDEP   =    2.296    radius for radial grids                                                     
   RDEPT  =    1.766    core radius for aug-charge                                                  
                                                                                                    
   Atomic configuration                                                                             
    8 entries                                                                                       
     n  l   j            E        occ.                                                              
     1  0  0.50     -6993.8440   2.0000                                                             
     2  0  0.50      -814.6047   2.0000                                                             
     2  1  1.50      -693.3689   6.0000                                                             
     3  0  0.50       -89.4732   2.0000                                                             
     3  1  1.50       -55.6373   6.0000                                                             
     3  2  2.50        -3.8151   7.0000                                                             
     4  0  0.50        -4.2551   1.0000                                                             
     4  3  2.50        -1.3606   0.0000                                                             
   Description                                                                                      
     l       E           TYP  RCUT    TYP  RCUT                                                     
     1    -55.6372668     23  2.000                                                                 
     1     -5.4423304     23  2.000                                                                 
     2     -3.8151096     23  2.200                                                                 
     2     -5.1756922     23  2.200                                                                 
     0     -4.2550951     23  2.200                                                                 
     0     27.2116520     23  2.200                                                                 
     3     -1.3605826     23  2.200                                                                 
  local pseudopotential read in
  partial core-charges read in
  partial kinetic energy density read in
  atomic valenz-charges read in
  non local Contribution for L=           1  read in
    real space projection operators read in
  non local Contribution for L=           1  read in
    real space projection operators read in
  non local Contribution for L=           2  read in
    real space projection operators read in
  non local Contribution for L=           2  read in
    real space projection operators read in
  non local Contribution for L=           0  read in
    real space projection operators read in
  non local Contribution for L=           0  read in
    real space projection operators read in
    PAW grid and wavefunctions read in
 
   number of l-projection  operators is LMAX  =           6
   number of lm-projection operators is LMMAX =          18
 
 POTCAR:    PAW_PBE Pt 04Feb2005                  
   SHA256 =  3ed90460adef76debcff1cfb73ee1349b515b1a3db03439735b44de3a8db7dc8 Pt/POTCAR             
   COPYR  = (c) Copyright 04Feb2005 Georg Kresse                                                    
   COPYR  = This file is part of the software VASP. Any use, copying, and all other rights are regul
   COPYR  = If you do not have a valid VASP license, you may not use, copy or distribute this file. 
   VRHFIN =Pt: s1d9                                                                                 
   LEXCH  = PE                                                                                      
   EATOM  =   729.1176 eV,   53.5886 Ry                                                             
                                                                                                    
   TITEL  = PAW_PBE Pt 04Feb2005                                                                    
   LULTRA =        F    use ultrasoft PP ?                                                          
   IUNSCR =        1    unscreen: 0-lin 1-nonlin 2-no                                               
   RPACOR =    2.330    partial core radius                                                         
   POMASS =  195.080; ZVAL   =   10.000    mass and valenz                                          
   RCORE  =    2.600    outmost cutoff radius                                                       
   RWIGS  =    2.750; RWIGS  =    1.455    wigner-seitz radius (au A)                               
   ENMAX  =  230.283; ENMIN  =  172.712 eV                                                          
   ICORE  =        3    local potential                                                             
   LCOR   =        T    correct aug charges                                                         
   LPAW   =        T    paw PP                                                                      
   EAUG   =  358.966                                                                                
   DEXC   =    0.000                                                                                
   RMAX   =    2.658    core radius for proj-oper                                                   
   RAUG   =    1.300    factor for augmentation sphere                                              
   RDEP   =    2.761    radius for radial grids                                                     
   RDEPT  =    2.203    core radius for aug-charge                                                  
                                                                                                    
   Atomic configuration                                                                             
   16 entries                                                                                       
     n  l   j            E        occ.                                                              
     1  0  0.50    -78401.1885   2.0000                                                             
     2  0  0.50    -13770.7750   2.0000                                                             
     2  1  1.50    -11931.0468   6.0000                                                             
     3  0  0.50     -3234.7234   2.0000                                                             
     3  1  1.50     -2699.2216   6.0000                                                             
     3  2  2.50     -2119.5714  10.0000                                                             
     4  0  0.50      -695.1528   2.0000                                                             
     4  1  1.50      -519.6034   6.0000                                                             
     4  2  2.50      -306.6786  10.0000                                                             
     4  3  3.50       -70.1041  14.0000                                                             
     5  0  0.50      -101.7747   2.0000                                                             
     5  1  1.50       -55.9873   6.0000                                                             
     5  2  2.50        -6.1423   9.0000                                                             
     6  0  0.50        -5.6573   1.0000                                                             
     6  1  1.50        -6.8029   0.0000                                                             
     5  3  2.50        -1.3606   0.0000                                                             
   Description                                                                                      
     l       E           TYP  RCUT    TYP  RCUT                                                     
     2     -6.1423404     23  2.500                                                                 
     2     -7.5029230     23  2.500                                                                 
     0     -5.6573207     23  2.500                                                                 
     0      0.7416693     23  2.500                                                                 
     1     -2.7211652     23  2.600                                                                 
     1     20.4087390     23  2.600                                                                 
     3     -1.3605826     23  2.500                                                                 
  local pseudopotential read in
  partial core-charges read in
  partial kinetic energy density read in
  atomic valenz-charges read in
  non local Contribution for L=           2  read in
    real space projection operators read in
  non local Contribution for L=           2  read in
    real space projection operators read in
  non local Contribution for L=           0  read in
    real space projection operators read in
  non local Contribution for L=           0  read in
    real space projection operators read in
  non local Contribution for L=           1  read in
    real space projection operators read in
  non local Contribution for L=           1  read in
    real space projection operators read in
    PAW grid and wavefunctions read in
 
   number of l-projection  operators is LMAX  =           6
   number of lm-projection operators is LMMAX =          18
 
  PAW_PBE Fe_pv 02Aug2007               :
 energy of atom  1       EATOM=-2457.4239
 kinetic energy error for atom=    0.0062 (will be added to EATOM!!)
  PAW_PBE Pt 04Feb2005                  :
 energy of atom  2       EATOM= -729.1176
 kinetic energy error for atom=    0.0032 (will be added to EATOM!!)
 
 
 POSCAR: Fe9 Pt3
  positions in direct lattice
  velocities in cartesian coordinates


 exchange-correlation table for PE
   RHO(1)=    0.500       N(1)  =     2000
   RHO(2)=  100.500       N(2)  =     4000
 


--------------------------------------------------------------------------------------------------------


 ion  position               nearest neighbor table
   1  0.000  0.500  0.167-   7 2.59   7 2.59   7 2.59   7 2.59  10 2.59   4 2.59  10 2.59   4 2.59
                             5 2.59   5 2.59  11 2.59  11 2.59
   2  0.000  0.500  0.500-   8 2.59   8 2.59   8 2.59   8 2.59  11 2.59  12 2.59  12 2.59  11 2.59
                             5 2.59   6 2.59   5 2.59   6 2.59
   3  0.000  0.500  0.833-   9 2.59   9 2.59   9 2.59   9 2.59  10 2.59   4 2.59  10 2.59   4 2.59
                             6 2.59   6 2.59  12 2.59  12 2.59
   4  0.500  0.500  0.000-  10 2.59  10 2.59  10 2.59  10 2.59   1 2.59   7 2.59   9 2.59   3 2.59
                             1 2.59   3 2.59   7 2.59   9 2.59
   5  0.500  0.500  0.333-  11 2.59  11 2.59  11 2.59  11 2.59   7 2.59   1 2.59   1 2.59   7 2.59
                             8 2.59   2 2.59   8 2.59   2 2.59
   6  0.500  0.500  0.667-  12 2.59  12 2.59  12 2.59  12 2.59   9 2.59   3 2.59   3 2.59   9 2.59
                             2 2.59   8 2.59   2 2.59   8 2.59
   7  0.500  0.000  0.167-   1 2.59   1 2.59   1 2.59   1 2.59   4 2.59  10 2.59  10 2.59   4 2.59
                             5 2.59   5 2.59  11 2.59  11 2.59
   8  0.500  0.000  0.500-   2 2.59   2 2.59   2 2.59   2 2.59  12 2.59  11 2.59  12 2.59  11 2.59
                             6 2.59   5 2.59   5 2.59   6 2.59
   9  0.500  0.000  0.833-   3 2.59   3 2.59   3 2.59   3 2.59   4 2.59  10 2.59  10 2.59   4 2.59
                             6 2.59   6 2.59  12 2.59  12 2.59
  10  0.000  0.000  0.000-   4 2.59   4 2.59   4 2.59   4 2.59   9 2.59   1 2.59   3 2.59   3 2.59
                             1 2.59   7 2.59   9 2.59   7 2.59
  11  0.000  0.000  0.333-   5 2.59   5 2.59   5 2.59   5 2.59   2 2.59   8 2.59   8 2.59   2 2.59
                             1 2.59   7 2.59   7 2.59   1 2.59
  12  0.000  0.000  0.667-   6 2.59   6 2.59   6 2.59   6 2.59   2 2.59   8 2.59   8 2.59   2 2.59
                             3 2.59   3 2.59   9 2.59   9 2.59
 
  LATTYP: Found a simple tetragonal cell.
 ALAT       =     3.6664714472
 C/A-ratio  =     3.0027335306
  
  Lattice vectors:
  
 A1 = (   3.6664714472,   0.0000000000,   0.0000000000)
 A2 = (   0.0000000000,   3.6664714472,   0.0000000000)
 A3 = (   0.0000000000,   0.0000000000,  11.0094367535)


Analysis of symmetry for initial positions (statically):
=====================================================================
 Subroutine PRICEL returns:
 Original cell was already a primitive cell.
 

 Routine SETGRP: Setting up the symmetry group for a 
 simple tetragonal supercell.


 Subroutine GETGRP returns: Found 16 space group operations
 (whereof 16 operations were pure point group operations)
 out of a pool of 16 trial point group operations.


The static configuration has the point symmetry D_4h.


Analysis of symmetry for dynamics (positions and initial velocities):
=====================================================================
 Subroutine PRICEL returns:
 Original cell was already a primitive cell.
 

 Routine SETGRP: Setting up the symmetry group for a 
 simple tetragonal supercell.


 Subroutine GETGRP returns: Found 16 space group operations
 (whereof 16 operations were pure point group operations)
 out of a pool of 16 trial point group operations.


The dynamic configuration has the point symmetry D_4h.


Analysis of structural, dynamic, and magnetic symmetry:
=====================================================================
 Subroutine PRICEL returns:
 Original cell was already a primitive cell.
 

 Routine SETGRP: Setting up the symmetry group for a 
 simple tetragonal supercell.


 Subroutine GETGRP returns: Found 16 space group operations
 (whereof 16 operations were pure point group operations)
 out of a pool of 16 trial point group operations.


The overall configuration has the point symmetry D_4h.


 Subroutine INISYM returns: Found 16 space group operations
 (whereof 16 operations are pure point group operations),
 and found     1 'primitive' translations


----------------------------------------------------------------------------------------

                                     Primitive cell                                     

  volume of cell :     148.0000

  direct lattice vectors                    reciprocal lattice vectors
     3.666471447  0.000000000  0.000000000     0.272741794  0.000000000  0.000000000
     0.000000000  3.666471447  0.000000000     0.000000000  0.272741794  0.000000000
     0.000000000  0.000000000 11.009436753     0.000000000  0.000000000  0.090831168

  length of vectors
     3.666471447  3.666471447 11.009436753     0.272741794  0.272741794  0.090831168

  position of ions in fractional coordinates (direct lattice)
     0.000000000  0.500000000  0.166611204
     0.000000000  0.500000000  0.500000000
     0.000000000  0.500000000  0.833388796
     0.500000000  0.500000000  0.000000000
     0.500000000  0.500000000  0.333261410
     0.500000000  0.500000000  0.666738590
     0.500000000  0.000000000  0.166611204
     0.500000000  0.000000000  0.500000000
     0.500000000  0.000000000  0.833388796
     0.000000000  0.000000000  0.000000000
     0.000000000  0.000000000  0.333324505
     0.000000000  0.000000000  0.666675495

  ion indices of the primitive-cell ions
   primitive index   ion index
                 1           1
                 2           2
                 3           3
                 4           4
                 5           5
                 6           6
                 7           7
                 8           8
                 9           9
                10          10
                11          11
                12          12

----------------------------------------------------------------------------------------

 
 
 KPOINTS: pymatgen with grid density = 8800 / numb

Automatic generation of k-mesh.
 Grid dimensions read from file:
 generate k-points for:   13   13    4

 Generating k-lattice:

  Cartesian coordinates                     Fractional coordinates (reciprocal lattice)
     0.020980138  0.000000000  0.000000000     0.076923077  0.000000000  0.000000000
     0.000000000  0.020980138  0.000000000     0.000000000  0.076923077  0.000000000
     0.000000000  0.000000000  0.022707792     0.000000000  0.000000000  0.250000000

  Length of vectors
     0.020980138  0.020980138  0.022707792

  Shift w.r.t. Gamma in fractional coordinates (k-lattice)
     0.000000000  0.000000000  0.000000000

 TETIRR: Found   1010 inequivalent tetrahedra from     4056
 
 Subroutine IBZKPT returns following result:
 ===========================================
 
 Found     84 irreducible k-points:
 
 Following reciprocal coordinates:
            Coordinates               Weight
  0.000000  0.000000  0.000000      1.000000
  0.076923  0.000000  0.000000      4.000000
  0.153846  0.000000  0.000000      4.000000
  0.230769  0.000000  0.000000      4.000000
  0.307692  0.000000  0.000000      4.000000
  0.384615  0.000000  0.000000      4.000000
  0.461538  0.000000  0.000000      4.000000
  0.076923  0.076923  0.000000      4.000000
  0.153846  0.076923  0.000000      8.000000
  0.230769  0.076923  0.000000      8.000000
  0.307692  0.076923  0.000000      8.000000
  0.384615  0.076923  0.000000      8.000000
  0.461538  0.076923  0.000000      8.000000
  0.153846  0.153846  0.000000      4.000000
  0.230769  0.153846  0.000000      8.000000
  0.307692  0.153846  0.000000      8.000000
  0.384615  0.153846  0.000000      8.000000
  0.461538  0.153846  0.000000      8.000000
  0.230769  0.230769  0.000000      4.000000
  0.307692  0.230769  0.000000      8.000000
  0.384615  0.230769  0.000000      8.000000
  0.461538  0.230769  0.000000      8.000000
  0.307692  0.307692  0.000000      4.000000
  0.384615  0.307692  0.000000      8.000000
  0.461538  0.307692  0.000000      8.000000
  0.384615  0.384615  0.000000      4.000000
  0.461538  0.384615  0.000000      8.000000
  0.461538  0.461538  0.000000      4.000000
  0.000000  0.000000  0.250000      2.000000
  0.076923  0.000000  0.250000      8.000000
  0.153846  0.000000  0.250000      8.000000
  0.230769  0.000000  0.250000      8.000000
  0.307692  0.000000  0.250000      8.000000
  0.384615  0.000000  0.250000      8.000000
  0.461538  0.000000  0.250000      8.000000
  0.076923  0.076923  0.250000      8.000000
  0.153846  0.076923  0.250000     16.000000
  0.230769  0.076923  0.250000     16.000000
  0.307692  0.076923  0.250000     16.000000
  0.384615  0.076923  0.250000     16.000000
  0.461538  0.076923  0.250000     16.000000
  0.153846  0.153846  0.250000      8.000000
  0.230769  0.153846  0.250000     16.000000
  0.307692  0.153846  0.250000     16.000000
  0.384615  0.153846  0.250000     16.000000
  0.461538  0.153846  0.250000     16.000000
  0.230769  0.230769  0.250000      8.000000
  0.307692  0.230769  0.250000     16.000000
  0.384615  0.230769  0.250000     16.000000
  0.461538  0.230769  0.250000     16.000000
  0.307692  0.307692  0.250000      8.000000
  0.384615  0.307692  0.250000     16.000000
  0.461538  0.307692  0.250000     16.000000
  0.384615  0.384615  0.250000      8.000000
  0.461538  0.384615  0.250000     16.000000
  0.461538  0.461538  0.250000      8.000000
  0.000000  0.000000  0.500000      1.000000
  0.076923  0.000000  0.500000      4.000000
  0.153846  0.000000  0.500000      4.000000
  0.230769  0.000000  0.500000      4.000000
  0.307692  0.000000  0.500000      4.000000
  0.384615  0.000000  0.500000      4.000000
  0.461538  0.000000  0.500000      4.000000
  0.076923  0.076923  0.500000      4.000000
  0.153846  0.076923  0.500000      8.000000
  0.230769  0.076923  0.500000      8.000000
  0.307692  0.076923  0.500000      8.000000
  0.384615  0.076923  0.500000      8.000000
  0.461538  0.076923  0.500000      8.000000
  0.153846  0.153846  0.500000      4.000000
  0.230769  0.153846  0.500000      8.000000
  0.307692  0.153846  0.500000      8.000000
  0.384615  0.153846  0.500000      8.000000
  0.461538  0.153846  0.500000      8.000000
  0.230769  0.230769  0.500000      4.000000
  0.307692  0.230769  0.500000      8.000000
  0.384615  0.230769  0.500000      8.000000
  0.461538  0.230769  0.500000      8.000000
  0.307692  0.307692  0.500000      4.000000
  0.384615  0.307692  0.500000      8.000000
  0.461538  0.307692  0.500000      8.000000
  0.384615  0.384615  0.500000      4.000000
  0.461538  0.384615  0.500000      8.000000
  0.461538  0.461538  0.500000      4.000000
 
 Following cartesian coordinates:
            Coordinates               Weight
  0.000000  0.000000  0.000000      1.000000
  0.020980  0.000000  0.000000      4.000000
  0.041960  0.000000  0.000000      4.000000
  0.062940  0.000000  0.000000      4.000000
  0.083921  0.000000  0.000000      4.000000
  0.104901  0.000000  0.000000      4.000000
  0.125881  0.000000  0.000000      4.000000
  0.020980  0.020980  0.000000      4.000000
  0.041960  0.020980  0.000000      8.000000
  0.062940  0.020980  0.000000      8.000000
  0.083921  0.020980  0.000000      8.000000
  0.104901  0.020980  0.000000      8.000000
  0.125881  0.020980  0.000000      8.000000
  0.041960  0.041960  0.000000      4.000000
  0.062940  0.041960  0.000000      8.000000
  0.083921  0.041960  0.000000      8.000000
  0.104901  0.041960  0.000000      8.000000
  0.125881  0.041960  0.000000      8.000000
  0.062940  0.062940  0.000000      4.000000
  0.083921  0.062940  0.000000      8.000000
  0.104901  0.062940  0.000000      8.000000
  0.125881  0.062940  0.000000      8.000000
  0.083921  0.083921  0.000000      4.000000
  0.104901  0.083921  0.000000      8.000000
  0.125881  0.083921  0.000000      8.000000
  0.104901  0.104901  0.000000      4.000000
  0.125881  0.104901  0.000000      8.000000
  0.125881  0.125881  0.000000      4.000000
  0.000000  0.000000  0.022708      2.000000
  0.020980  0.000000  0.022708      8.000000
  0.041960  0.000000  0.022708      8.000000
  0.062940  0.000000  0.022708      8.000000
  0.083921  0.000000  0.022708      8.000000
  0.104901  0.000000  0.022708      8.000000
  0.125881  0.000000  0.022708      8.000000
  0.020980  0.020980  0.022708      8.000000
  0.041960  0.020980  0.022708     16.000000
  0.062940  0.020980  0.022708     16.000000
  0.083921  0.020980  0.022708     16.000000
  0.104901  0.020980  0.022708     16.000000
  0.125881  0.020980  0.022708     16.000000
  0.041960  0.041960  0.022708      8.000000
  0.062940  0.041960  0.022708     16.000000
  0.083921  0.041960  0.022708     16.000000
  0.104901  0.041960  0.022708     16.000000
  0.125881  0.041960  0.022708     16.000000
  0.062940  0.062940  0.022708      8.000000
  0.083921  0.062940  0.022708     16.000000
  0.104901  0.062940  0.022708     16.000000
  0.125881  0.062940  0.022708     16.000000
  0.083921  0.083921  0.022708      8.000000
  0.104901  0.083921  0.022708     16.000000
  0.125881  0.083921  0.022708     16.000000
  0.104901  0.104901  0.022708      8.000000
  0.125881  0.104901  0.022708     16.000000
  0.125881  0.125881  0.022708      8.000000
  0.000000  0.000000  0.045416      1.000000
  0.020980  0.000000  0.045416      4.000000
  0.041960  0.000000  0.045416      4.000000
  0.062940  0.000000  0.045416      4.000000
  0.083921  0.000000  0.045416      4.000000
  0.104901  0.000000  0.045416      4.000000
  0.125881  0.000000  0.045416      4.000000
  0.020980  0.020980  0.045416      4.000000
  0.041960  0.020980  0.045416      8.000000
  0.062940  0.020980  0.045416      8.000000
  0.083921  0.020980  0.045416      8.000000
  0.104901  0.020980  0.045416      8.000000
  0.125881  0.020980  0.045416      8.000000
  0.041960  0.041960  0.045416      4.000000
  0.062940  0.041960  0.045416      8.000000
  0.083921  0.041960  0.045416      8.000000
  0.104901  0.041960  0.045416      8.000000
  0.125881  0.041960  0.045416      8.000000
  0.062940  0.062940  0.045416      4.000000
  0.083921  0.062940  0.045416      8.000000
  0.104901  0.062940  0.045416      8.000000
  0.125881  0.062940  0.045416      8.000000
  0.083921  0.083921  0.045416      4.000000
  0.104901  0.083921  0.045416      8.000000
  0.125881  0.083921  0.045416      8.000000
  0.104901  0.104901  0.045416      4.000000
  0.125881  0.104901  0.045416      8.000000
  0.125881  0.125881  0.045416      4.000000
 


--------------------------------------------------------------------------------------------------------




 Dimension of arrays:
   k-points           NKPTS =     84   k-points in BZ     NKDIM =     84   number of bands    NBANDS=    128
   number of dos      NEDOS =    301   number of ions     NIONS =     12
   non local maximal  LDIM  =      6   non local SUM 2l+1 LMDIM =     18
   total plane-waves  NPLWV =  65856
   max r-space proj   IRMAX =      1   max aug-charges    IRDMAX=  27147
   dimension x,y,z NGX =    28 NGY =   28 NGZ =   84
   dimension x,y,z NGXF=    56 NGYF=   56 NGZF=  168
   support grid    NGXF=    56 NGYF=   56 NGZF=  168
   ions per type =               9   3
   NGX,Y,Z   is equivalent  to a cutoff of  12.70, 12.70, 12.68 a.u.
   NGXF,Y,Z  is equivalent  to a cutoff of  25.39, 25.39, 25.37 a.u.

 SYSTEM =  unknown system                          
 POSCAR =  Fe9 Pt3                                 

 Startparameter for this run:
   NWRITE =      2    write-flag & timer
   PREC   = accura    normal or accurate (medium, high low for compatibility)
   ISTART =      0    job   : 0-new  1-cont  2-samecut
   ICHARG =      2    charge: 1-file 2-atom 10-const
   ISPIN  =      2    spin polarized calculation?
   LNONCOLLINEAR =      F non collinear calculations
   LSORBIT =      F    spin-orbit coupling
   INIWAV =      1    electr: 0-lowe 1-rand  2-diag
   LASPH  =      F    aspherical Exc in radial PAW
 Electronic Relaxation 1
   ENCUT  =  520.0 eV  38.22 Ry    6.18 a.u.   6.82  6.82 20.47*2*pi/ulx,y,z
   ENINI  =  520.0     initial cutoff
   ENAUG  =  578.3 eV  augmentation charge cutoff
   NELM   =    200;   NELMIN=  2; NELMDL=  0     # of ELM steps 
   EDIFF  = 0.1E-05   stopping-criterion for ELM
   LREAL  =      F    real-space projection
   NLSPLINE    = F    spline interpolate recip. space projectors
   LCOMPAT=      F    compatible to vasp.4.4
   GGA_COMPAT  = T    GGA compatible to vasp.4.4-vasp.4.6
   LMAXPAW     = -100 max onsite density
   LMAXMIX     =    2 max onsite mixed and CHGCAR
   VOSKOWN=      0    Vosko Wilk Nusair interpolation
   ROPT   =    0.00000   0.00000
 Ionic relaxation
   EDIFFG = -.1E-01   stopping-criterion for IOM
   NSW    =      0    number of steps for IOM
   NBLOCK =      1;   KBLOCK =      1    inner block; outer block 
   IBRION =     -1    ionic relax: 0-MD 1-quasi-New 2-CG
   NFREE  =      0    steps in history (QN), initial steepest desc. (CG)
   ISIF   =      4    stress and relaxation
   IWAVPR =     10    prediction:  0-non 1-charg 2-wave 3-comb
   ISYM   =      2    0-nonsym 1-usesym 2-fastsym
   LCORR  =      T    Harris-Foulkes like correction to forces

   POTIM  = 0.5000    time-step for ionic-motion
   TEIN   =    0.0    initial temperature
   TEBEG  =    0.0;   TEEND  =   0.0 temperature during run
   SMASS  =  -3.00    Nose mass-parameter (am)
   estimated Nose-frequenzy (Omega)   =  0.10E-29 period in steps = 0.13E+47 mass=  -0.307E-27a.u.
   SCALEE = 1.0000    scale energy and forces
   NPACO  =    256;   APACO  = 10.0  distance and # of slots for P.C.
   PSTRESS=    0.0 pullay stress

  Mass of Ions in am
   POMASS =  55.85195.08
  Ionic Valenz
   ZVAL   =  14.00 10.00
  Atomic Wigner-Seitz radii
   RWIGS  =  -1.00 -1.00
  virtual crystal weights 
   VCA    =   1.00  1.00
   NELECT =     156.0000    total number of electrons
   NUPDOWN=      -1.0000    fix difference up-down

 DOS related values:
   EMIN   =  10.00;   EMAX   =-10.00  energy-range for DOS
   EFERMI =   0.00;   METHOD = LEGACY      
   ISMEAR =    -5;   SIGMA  =   0.20  broadening in eV -4-tet -1-fermi 0-gaus

 Electronic relaxation 2 (details)
   IALGO  =     38    algorithm
   LDIAG  =      T    sub-space diagonalisation (order eigenvalues)
   LSUBROT=      F    optimize rotation matrix (better conditioning)
   TURBO    =      0    0=normal 1=particle mesh
   IRESTART =      0    0=no restart 2=restart with 2 vectors
   NREBOOT  =      0    no. of reboots
   NMIN     =      0    reboot dimension
   EREF     =   0.00    reference energy to select bands
   IMIX   =      4    mixing-type and parameters
     AMIX     =   0.40;   BMIX     =  1.00
     AMIX_MAG =   1.60;   BMIX_MAG =  1.00
     AMIN     =   0.10
     WC   =   100.;   INIMIX=   1;  MIXPRE=   1;  MAXMIX= -45

 Intra band minimization:
   WEIMIN = 0.0000     energy-eigenvalue tresh-hold
   EBREAK =  0.20E-08  absolut break condition
   DEPER  =   0.30     relativ break condition  

   TIME   =   0.40     timestep for ELM

  volume/ion in A,a.u.               =      12.33        83.23
  Fermi-wavevector in a.u.,A,eV,Ry     =   1.666080  3.148434 37.767349  2.775822
  Thomas-Fermi vector in A             =   2.752338
 
 Write flags
   LWAVE        =      F    write WAVECAR
   LDOWNSAMPLE  =      F    k-point downsampling of WAVECAR
   LCHARG       =      T    write CHGCAR
   LVTOT        =      F    write LOCPOT, total local potential
   LVHAR        =      F    write LOCPOT, Hartree potential only
   WRT_POTENTIAL= false  ! write potential to hdf5 file
   LELF         =      F    write electronic localiz. function (ELF)
   LORBIT       =     11    0 simple, 1 ext, 2 COOP (PROOUT), +10 PAW based schemes


 Dipole corrections
   LMONO      =      F    monopole corrections only (constant potential shift)
   LDIPOL     =      F    correct potential (dipole corrections)
   IDIPOL     =      0    1-x, 2-y, 3-z, 4-all directions 
   EPSILON    =  1.0000000 bulk dielectric constant
   LVACPOTAV  =      F  vacuum potentials using an averaging scheme for the charge density
   VACPOTFLAT =  0.1000000 required flatness to determine vacuum potential
 Exchange correlation treatment:
   GGA     = PE    functional components
   XC_C    = 1    coefficients multiplying the functional components
   LIBXC   =     F    Libxc                    
   VOSKOWN =     0    Vosko Wilk Nusair interpolation
   LHFCALC =     F    Hartree Fock is set to
   LHFONE  =     F    Hartree Fock one center treatment
   AEXX    =    0.0000 exact exchange contribution

 Parameters of functionals:
   PE:
     No parameter
 
 Van der Waals corrections
   IVDW    =     0    specifies the selected vdW correction

 Linear response parameters
   LEPSILON=     F    determine dielectric tensor
   LRPA    =     F    only Hartree local field effects (RPA)
   LNABLA  =     F    use nabla operator in PAW spheres
   LVEL    =     F    velocity operator in full k-point grid
   CSHIFT  =0.1000    complex shift for real part using Kramers Kronig
   OMEGAMAX=  -1.0    maximum frequency
   DEG_THRESHOLD= 0.2000000E-02 threshold for treating states as degnerate
   RTIME   =   -0.100 relaxation time in fs
  (WPLASMAI=    0.000 imaginary part of plasma frequency in eV, 0.658/RTIME)
   DFIELD  = 0.0000000 0.0000000 0.0000000 field for delta impulse in time
 
  Optional k-point grid parameters
   LKPOINTS_OPT  =     F    use optional k-point grid
   KPOINTS_OPT_MODE=     1    mode for optional k-point grid
 
 Orbital magnetization related:
   ORBITALMAG=     F  switch on orbital magnetization
   LCHIMAG   =     F  perturbation theory with respect to B field
   DQ        =  0.001000  dq finite difference perturbation B field
   LLRAUG    =     F  two centre corrections for induced B field
   LBONE     =     F  B-component reconstruction in AE one-centre
   LVGVCALC  =     T  calculate vGv susceptibility
   LVGVAPPL  =     F  apply vGv susceptibility instead of pGv for G=0

 Random number generation:
   RANDOM_GENERATOR = DEFAULT
   PCG_SEED         = not used


--------------------------------------------------------------------------------------------------------


 Static calculation
 charge density and potential will be updated during run
 spin polarized calculation
 Variant of blocked Davidson
 Davidson routine will perform the subspace rotation
 perform sub-space diagonalisation
    after iterative eigenvector-optimisation
 modified Broyden-mixing scheme, WC =      100.0
 initial mixing is a Kerker type mixing with AMIX =  0.4000 and BMIX =      1.0000
 Hartree-type preconditioning will be used
 using additional bands           50
 reciprocal scheme for non local part
 use partial core corrections
 calculate Harris-corrections to forces 
   (improved forces if not selfconsistent)
 use gradient corrections 
 use of overlap-Matrix (Vanderbilt PP)
 Fermi weights with tetrahedron method with Bloechl corrections


--------------------------------------------------------------------------------------------------------


  energy-cutoff  :      520.00
  volume of cell :      148.00
      direct lattice vectors                 reciprocal lattice vectors
     3.666471447  0.000000000  0.000000000     0.272741794  0.000000000  0.000000000
     0.000000000  3.666471447  0.000000000     0.000000000  0.272741794  0.000000000
     0.000000000  0.000000000 11.009436753     0.000000000  0.000000000  0.090831168

  length of vectors
     3.666471447  3.666471447 11.009436753     0.272741794  0.272741794  0.090831168


 
 k-points in units of 2pi/SCALE and weight: pymatgen with grid density = 8800 / numb
   0.00000000  0.00000000  0.00000000       0.001
   0.02098014  0.00000000  0.00000000       0.006
   0.04196028  0.00000000  0.00000000       0.006
   0.06294041  0.00000000  0.00000000       0.006
   0.08392055  0.00000000  0.00000000       0.006
   0.10490069  0.00000000  0.00000000       0.006
   0.12588083  0.00000000  0.00000000       0.006
   0.02098014  0.02098014  0.00000000       0.006
   0.04196028  0.02098014  0.00000000       0.012
   0.06294041  0.02098014  0.00000000       0.012
   0.08392055  0.02098014  0.00000000       0.012
   0.10490069  0.02098014  0.00000000       0.012
   0.12588083  0.02098014  0.00000000       0.012
   0.04196028  0.04196028  0.00000000       0.006
   0.06294041  0.04196028  0.00000000       0.012
   0.08392055  0.04196028  0.00000000       0.012
   0.10490069  0.04196028  0.00000000       0.012
   0.12588083  0.04196028  0.00000000       0.012
   0.06294041  0.06294041  0.00000000       0.006
   0.08392055  0.06294041  0.00000000       0.012
   0.10490069  0.06294041  0.00000000       0.012
   0.12588083  0.06294041  0.00000000       0.012
   0.08392055  0.08392055  0.00000000       0.006
   0.10490069  0.08392055  0.00000000       0.012
   0.12588083  0.08392055  0.00000000       0.012
   0.10490069  0.10490069  0.00000000       0.006
   0.12588083  0.10490069  0.00000000       0.012
   0.12588083  0.12588083  0.00000000       0.006
   0.00000000  0.00000000  0.02270779       0.003
   0.02098014  0.00000000  0.02270779       0.012
   0.04196028  0.00000000  0.02270779       0.012
   0.06294041  0.00000000  0.02270779       0.012
   0.08392055  0.00000000  0.02270779       0.012
   0.10490069  0.00000000  0.02270779       0.012
   0.12588083  0.00000000  0.02270779       0.012
   0.02098014  0.02098014  0.02270779       0.012
   0.04196028  0.02098014  0.02270779       0.024
   0.06294041  0.02098014  0.02270779       0.024
   0.08392055  0.02098014  0.02270779       0.024
   0.10490069  0.02098014  0.02270779       0.024
   0.12588083  0.02098014  0.02270779       0.024
   0.04196028  0.04196028  0.02270779       0.012
   0.06294041  0.04196028  0.02270779       0.024
   0.08392055  0.04196028  0.02270779       0.024
   0.10490069  0.04196028  0.02270779       0.024
   0.12588083  0.04196028  0.02270779       0.024
   0.06294041  0.06294041  0.02270779       0.012
   0.08392055  0.06294041  0.02270779       0.024
   0.10490069  0.06294041  0.02270779       0.024
   0.12588083  0.06294041  0.02270779       0.024
   0.08392055  0.08392055  0.02270779       0.012
   0.10490069  0.08392055  0.02270779       0.024
   0.12588083  0.08392055  0.02270779       0.024
   0.10490069  0.10490069  0.02270779       0.012
   0.12588083  0.10490069  0.02270779       0.024
   0.12588083  0.12588083  0.02270779       0.012
   0.00000000  0.00000000  0.04541558       0.001
   0.02098014  0.00000000  0.04541558       0.006
   0.04196028  0.00000000  0.04541558       0.006
   0.06294041  0.00000000  0.04541558       0.006
   0.08392055  0.00000000  0.04541558       0.006
   0.10490069  0.00000000  0.04541558       0.006
   0.12588083  0.00000000  0.04541558       0.006
   0.02098014  0.02098014  0.04541558       0.006
   0.04196028  0.02098014  0.04541558       0.012
   0.06294041  0.02098014  0.04541558       0.012
   0.08392055  0.02098014  0.04541558       0.012
   0.10490069  0.02098014  0.04541558       0.012
   0.12588083  0.02098014  0.04541558       0.012
   0.04196028  0.04196028  0.04541558       0.006
   0.06294041  0.04196028  0.04541558       0.012
   0.08392055  0.04196028  0.04541558       0.012
   0.10490069  0.04196028  0.04541558       0.012
   0.12588083  0.04196028  0.04541558       0.012
   0.06294041  0.06294041  0.04541558       0.006
   0.08392055  0.06294041  0.04541558       0.012
   0.10490069  0.06294041  0.04541558       0.012
   0.12588083  0.06294041  0.04541558       0.012
   0.08392055  0.08392055  0.04541558       0.006
   0.10490069  0.08392055  0.04541558       0.012
   0.12588083  0.08392055  0.04541558       0.012
   0.10490069  0.10490069  0.04541558       0.006
   0.12588083  0.10490069  0.04541558       0.012
   0.12588083  0.12588083  0.04541558       0.006
 
 k-points in reciprocal lattice and weights: pymatgen with grid density = 8800 / numb
   0.00000000  0.00000000  0.00000000       0.001
   0.07692308  0.00000000  0.00000000       0.006
   0.15384615  0.00000000  0.00000000       0.006
   0.23076923  0.00000000  0.00000000       0.006
   0.30769231  0.00000000  0.00000000       0.006
   0.38461538  0.00000000  0.00000000       0.006
   0.46153846  0.00000000  0.00000000       0.006
   0.07692308  0.07692308  0.00000000       0.006
   0.15384615  0.07692308  0.00000000       0.012
   0.23076923  0.07692308  0.00000000       0.012
   0.30769231  0.07692308  0.00000000       0.012
   0.38461538  0.07692308  0.00000000       0.012
   0.46153846  0.07692308  0.00000000       0.012
   0.15384615  0.15384615  0.00000000       0.006
   0.23076923  0.15384615  0.00000000       0.012
   0.30769231  0.15384615  0.00000000       0.012
   0.38461538  0.15384615  0.00000000       0.012
   0.46153846  0.15384615  0.00000000       0.012
   0.23076923  0.23076923  0.00000000       0.006
   0.30769231  0.23076923  0.00000000       0.012
   0.38461538  0.23076923  0.00000000       0.012
   0.46153846  0.23076923  0.00000000       0.012
   0.30769231  0.30769231  0.00000000       0.006
   0.38461538  0.30769231  0.00000000       0.012
   0.46153846  0.30769231  0.00000000       0.012
   0.38461538  0.38461538  0.00000000       0.006
   0.46153846  0.38461538  0.00000000       0.012
   0.46153846  0.46153846  0.00000000       0.006
   0.00000000  0.00000000  0.25000000       0.003
   0.07692308  0.00000000  0.25000000       0.012
   0.15384615  0.00000000  0.25000000       0.012
   0.23076923  0.00000000  0.25000000       0.012
   0.30769231  0.00000000  0.25000000       0.012
   0.38461538  0.00000000  0.25000000       0.012
   0.46153846  0.00000000  0.25000000       0.012
   0.07692308  0.07692308  0.25000000       0.012
   0.15384615  0.07692308  0.25000000       0.024
   0.23076923  0.07692308  0.25000000       0.024
   0.30769231  0.07692308  0.25000000       0.024
   0.38461538  0.07692308  0.25000000       0.024
   0.46153846  0.07692308  0.25000000       0.024
   0.15384615  0.15384615  0.25000000       0.012
   0.23076923  0.15384615  0.25000000       0.024
   0.30769231  0.15384615  0.25000000       0.024
   0.38461538  0.15384615  0.25000000       0.024
   0.46153846  0.15384615  0.25000000       0.024
   0.23076923  0.23076923  0.25000000       0.012
   0.30769231  0.23076923  0.25000000       0.024
   0.38461538  0.23076923  0.25000000       0.024
   0.46153846  0.23076923  0.25000000       0.024
   0.30769231  0.30769231  0.25000000       0.012
   0.38461538  0.30769231  0.25000000       0.024
   0.46153846  0.30769231  0.25000000       0.024
   0.38461538  0.38461538  0.25000000       0.012
   0.46153846  0.38461538  0.25000000       0.024
   0.46153846  0.46153846  0.25000000       0.012
   0.00000000  0.00000000  0.50000000       0.001
   0.07692308  0.00000000  0.50000000       0.006
   0.15384615  0.00000000  0.50000000       0.006
   0.23076923  0.00000000  0.50000000       0.006
   0.30769231  0.00000000  0.50000000       0.006
   0.38461538  0.00000000  0.50000000       0.006
   0.46153846  0.00000000  0.50000000       0.006
   0.07692308  0.07692308  0.50000000       0.006
   0.15384615  0.07692308  0.50000000       0.012
   0.23076923  0.07692308  0.50000000       0.012
   0.30769231  0.07692308  0.50000000       0.012
   0.38461538  0.07692308  0.50000000       0.012
   0.46153846  0.07692308  0.50000000       0.012
   0.15384615  0.15384615  0.50000000       0.006
   0.23076923  0.15384615  0.50000000       0.012
   0.30769231  0.15384615  0.50000000       0.012
   0.38461538  0.15384615  0.50000000       0.012
   0.46153846  0.15384615  0.50000000       0.012
   0.23076923  0.23076923  0.50000000       0.006
   0.30769231  0.23076923  0.50000000       0.012
   0.38461538  0.23076923  0.50000000       0.012
   0.46153846  0.23076923  0.50000000       0.012
   0.30769231  0.30769231  0.50000000       0.006
   0.38461538  0.30769231  0.50000000       0.012
   0.46153846  0.30769231  0.50000000       0.012
   0.38461538  0.38461538  0.50000000       0.006
   0.46153846  0.38461538  0.50000000       0.012
   0.46153846  0.46153846  0.50000000       0.006
 
 position of ions in fractional coordinates (direct lattice) 
   0.00000000  0.50000000  0.16661120
   0.00000000  0.50000000  0.50000000
   0.00000000  0.50000000  0.83338880
   0.50000000  0.50000000  0.00000000
   0.50000000  0.50000000  0.33326141
   0.50000000  0.50000000  0.66673859
   0.50000000  0.00000000  0.16661120
   0.50000000  0.00000000  0.50000000
   0.50000000  0.00000000  0.83338880
   0.00000000  0.00000000  0.00000000
   0.00000000  0.00000000  0.33332450
   0.00000000  0.00000000  0.66667550
 
 position of ions in cartesian coordinates  (Angst):
   0.00000000  1.83323572  1.83429552
   0.00000000  1.83323572  5.50471838
   0.00000000  1.83323572  9.17514124
   1.83323572  1.83323572  0.00000000
   1.83323572  1.83323572  3.66902042
   1.83323572  1.83323572  7.34041634
   1.83323572  0.00000000  1.83429552
   1.83323572  0.00000000  5.50471838
   1.83323572  0.00000000  9.17514124
   0.00000000  0.00000000  0.00000000
   0.00000000  0.00000000  3.66971505
   0.00000000  0.00000000  7.33972170
 


--------------------------------------------------------------------------------------------------------


 k-point     1 :   0.0000 0.0000 0.0000  plane waves:    4009
 k-point     2 :   0.0769 0.0000 0.0000  plane waves:    4009
 k-point     3 :   0.1538 0.0000 0.0000  plane waves:    3985
 k-point     4 :   0.2308 0.0000 0.0000  plane waves:    3984
 k-point     5 :   0.3077 0.0000 0.0000  plane waves:    3976
 k-point     6 :   0.3846 0.0000 0.0000  plane waves:    3974
 k-point     7 :   0.4615 0.0000 0.0000  plane waves:    3964
 k-point     8 :   0.0769 0.0769 0.0000  plane waves:    3999
 k-point     9 :   0.1538 0.0769 0.0000  plane waves:    3991
 k-point    10 :   0.2308 0.0769 0.0000  plane waves:    3973
 k-point    11 :   0.3077 0.0769 0.0000  plane waves:    3986
 k-point    12 :   0.3846 0.0769 0.0000  plane waves:    3987
 k-point    13 :   0.4615 0.0769 0.0000  plane waves:    3980
 k-point    14 :   0.1538 0.1538 0.0000  plane waves:    3971
 k-point    15 :   0.2308 0.1538 0.0000  plane waves:    3980
 k-point    16 :   0.3077 0.1538 0.0000  plane waves:    3978
 k-point    17 :   0.3846 0.1538 0.0000  plane waves:    3993
 k-point    18 :   0.4615 0.1538 0.0000  plane waves:    3983
 k-point    19 :   0.2308 0.2308 0.0000  plane waves:    3978
 k-point    20 :   0.3077 0.2308 0.0000  plane waves:    3986
 k-point    21 :   0.3846 0.2308 0.0000  plane waves:    3992
 k-point    22 :   0.4615 0.2308 0.0000  plane waves:    3990
 k-point    23 :   0.3077 0.3077 0.0000  plane waves:    3976
 k-point    24 :   0.3846 0.3077 0.0000  plane waves:    3999
 k-point    25 :   0.4615 0.3077 0.0000  plane waves:    3998
 k-point    26 :   0.3846 0.3846 0.0000  plane waves:    3990
 k-point    27 :   0.4615 0.3846 0.0000  plane waves:    3988
 k-point    28 :   0.4615 0.4615 0.0000  plane waves:    4008
 k-point    29 :   0.0000 0.0000 0.2500  plane waves:    3985
 k-point    30 :   0.0769 0.0000 0.2500  plane waves:    3992
 k-point    31 :   0.1538 0.0000 0.2500  plane waves:    3980
 k-point    32 :   0.2308 0.0000 0.2500  plane waves:    3971
 k-point    33 :   0.3077 0.0000 0.2500  plane waves:    3988
 k-point    34 :   0.3846 0.0000 0.2500  plane waves:    3982
 k-point    35 :   0.4615 0.0000 0.2500  plane waves:    3988
 k-point    36 :   0.0769 0.0769 0.2500  plane waves:    3987
 k-point    37 :   0.1538 0.0769 0.2500  plane waves:    3973
 k-point    38 :   0.2308 0.0769 0.2500  plane waves:    3981
 k-point    39 :   0.3077 0.0769 0.2500  plane waves:    3986
 k-point    40 :   0.3846 0.0769 0.2500  plane waves:    3980
 k-point    41 :   0.4615 0.0769 0.2500  plane waves:    3972
 k-point    42 :   0.1538 0.1538 0.2500  plane waves:    3982
 k-point    43 :   0.2308 0.1538 0.2500  plane waves:    3977
 k-point    44 :   0.3077 0.1538 0.2500  plane waves:    3989
 k-point    45 :   0.3846 0.1538 0.2500  plane waves:    3982
 k-point    46 :   0.4615 0.1538 0.2500  plane waves:    3980
 k-point    47 :   0.2308 0.2308 0.2500  plane waves:    3975
 k-point    48 :   0.3077 0.2308 0.2500  plane waves:    3978
 k-point    49 :   0.3846 0.2308 0.2500  plane waves:    3987
 k-point    50 :   0.4615 0.2308 0.2500  plane waves:    3999
 k-point    51 :   0.3077 0.3077 0.2500  plane waves:    3986
 k-point    52 :   0.3846 0.3077 0.2500  plane waves:    3990
 k-point    53 :   0.4615 0.3077 0.2500  plane waves:    3997
 k-point    54 :   0.3846 0.3846 0.2500  plane waves:    4009
 k-point    55 :   0.4615 0.3846 0.2500  plane waves:    3999
 k-point    56 :   0.4615 0.4615 0.2500  plane waves:    4016
 k-point    57 :   0.0000 0.0000 0.5000  plane waves:    4000
 k-point    58 :   0.0769 0.0000 0.5000  plane waves:    3974
 k-point    59 :   0.1538 0.0000 0.5000  plane waves:    3968
 k-point    60 :   0.2308 0.0000 0.5000  plane waves:    3968
 k-point    61 :   0.3077 0.0000 0.5000  plane waves:    3980
 k-point    62 :   0.3846 0.0000 0.5000  plane waves:    3998
 k-point    63 :   0.4615 0.0000 0.5000  plane waves:    3992
 k-point    64 :   0.0769 0.0769 0.5000  plane waves:    3968
 k-point    65 :   0.1538 0.0769 0.5000  plane waves:    3966
 k-point    66 :   0.2308 0.0769 0.5000  plane waves:    3974
 k-point    67 :   0.3077 0.0769 0.5000  plane waves:    3988
 k-point    68 :   0.3846 0.0769 0.5000  plane waves:    3980
 k-point    69 :   0.4615 0.0769 0.5000  plane waves:    3978
 k-point    70 :   0.1538 0.1538 0.5000  plane waves:    3970
 k-point    71 :   0.2308 0.1538 0.5000  plane waves:    3978
 k-point    72 :   0.3077 0.1538 0.5000  plane waves:    3976
 k-point    73 :   0.3846 0.1538 0.5000  plane waves:    3982
 k-point    74 :   0.4615 0.1538 0.5000  plane waves:    3968
 k-point    75 :   0.2308 0.2308 0.5000  plane waves:    3982
 k-point    76 :   0.3077 0.2308 0.5000  plane waves:    3996
 k-point    77 :   0.3846 0.2308 0.5000  plane waves:    3988
 k-point    78 :   0.4615 0.2308 0.5000  plane waves:    3980
 k-point    79 :   0.3077 0.3077 0.5000  plane waves:    3976
 k-point    80 :   0.3846 0.3077 0.5000  plane waves:    3986
 k-point    81 :   0.4615 0.3077 0.5000  plane waves:    3996
 k-point    82 :   0.3846 0.3846 0.5000  plane waves:    3996
 k-point    83 :   0.4615 0.3846 0.5000  plane waves:    4004
 k-point    84 :   0.4615 0.4615 0.5000  plane waves:    3998

 maximum and minimum number of plane-waves per node :      4016     3964

 maximum number of plane-waves:      4016
 maximum index in each direction: 
   IXMAX=    6   IYMAX=    6   IZMAX=   20
   IXMIN=   -7   IYMIN=   -7   IZMIN=  -20


 serial   3D FFT for wavefunctions
 parallel 3D FFT for charge:
    minimum data exchange during FFTs selected (reduces bandwidth)


 total amount of memory used by VASP MPI-rank0   182150. kBytes
=======================================================================

   base      :      30000. kBytes
   nonl-proj :      98316. kBytes
   fftplans  :        888. kBytes
   grid      :       6813. kBytes
   one-center:        373. kBytes
   wavefun   :      45760. kBytes
 
     INWAV:  cpu time      0.0000: real time      0.0004
 Broyden mixing: mesh for mixing (old mesh)
   NGX = 13   NGY = 13   NGZ = 41
  (NGX  = 56   NGY  = 56   NGZ  =168)
  gives a total of   6929 points

 initial charge density was supplied:
 charge density of overlapping atoms calculated
 number of electron     156.0000000 magnetization      24.4480000
 keeping initial charge density in first step


--------------------------------------------------------------------------------------------------------


 Maximum index for augmentation-charges         1069 (set IRDMAX)


--------------------------------------------------------------------------------------------------------


 First call to EWALD:  gamma=   0.335
 Maximum number of real-space cells 4x 4x 2
 Maximum number of reciprocal cells 2x 2x 5

    FEWALD:  cpu time      0.0032: real time      0.0033


--------------------------------------- Ionic step        1  -------------------------------------------




--------------------------------------- Iteration      1(   1)  ---------------------------------------


    POTLOK:  cpu time      0.0298: real time      0.0534
    SETDIJ:  cpu time      0.0089: real time      0.0092
     EDDAV:  cpu time      5.8440: real time      5.8926
 BZINTS: Fermi energy:   23.979300;  156.000000 electrons
         Band energy: 0.620311E+03;  BLOECHL correction:   -0.051413
       DOS:  cpu time      0.1273: real time      0.1289
    --------------------------------------------
      LOOP:  cpu time      6.0100: real time      6.0842

 eigenvalue-minimisations  : 43040
 total energy-change (2. order) : 0.1766183E+04  (-0.8393250E+04)
 number of electron     156.0000000 magnetization      24.4480000
 augmentation part      156.0000000 magnetization      24.4480000

 Free energy of the ion-electron system (eV)
  ---------------------------------------------------
  alpha Z        PSCENC =      1149.93330786
  Ewald energy   TEWEN  =    -18412.59496304
  -Hartree energ DENC   =     -5830.89849770
  -exchange      EXHF   =         0.00000000
  -V(xc)+E(xc)   XCENC  =       659.28646013
  PAW double counting   =     20094.29161917   -20818.24952962
  entropy T*S    EENTRO =         0.00000000
  eigenvalues    EBANDS =       620.31123309
  atomic energy  EATOM  =     24304.10294433
  Solvation  Ediel_sol  =         0.00000000
  ---------------------------------------------------
  free energy    TOTEN  =      1766.18257422 eV

  energy without entropy =     1766.18257422  energy(sigma->0) =     1766.18257422


--------------------------------------------------------------------------------------------------------




--------------------------------------- Iteration      1(   2)  ---------------------------------------


     EDDAV:  cpu time      5.7093: real time      5.7611
 BZINTS: Fermi energy:   12.914036;  156.000000 electrons
         Band energy:-0.113942E+04;  BLOECHL correction:   -0.029237
       DOS:  cpu time      0.1291: real time      0.1301
    --------------------------------------------
      LOOP:  cpu time      5.8384: real time      5.8911

 eigenvalue-minimisations  : 43008
 total energy-change (2. order) :-0.1759736E+04  (-0.1667682E+04)
 number of electron     156.0000000 magnetization      24.4480000
 augmentation part      156.0000000 magnetization      24.4480000

 Free energy of the ion-electron system (eV)
  ---------------------------------------------------
  alpha Z        PSCENC =      1149.93330786
  Ewald energy   TEWEN  =    -18412.59496304
  -Hartree energ DENC   =     -5830.89849770
  -exchange      EXHF   =         0.00000000
  -V(xc)+E(xc)   XCENC  =       659.28646013
  PAW double counting   =     20094.29161917   -20818.24952962
  entropy T*S    EENTRO =         0.00000000
  eigenvalues    EBANDS =     -1139.42465380
  atomic energy  EATOM  =     24304.10294433
  Solvation  Ediel_sol  =         0.00000000
  ---------------------------------------------------
  free energy    TOTEN  =         6.44668733 eV

  energy without entropy =        6.44668733  energy(sigma->0) =        6.44668733


--------------------------------------------------------------------------------------------------------




--------------------------------------- Iteration      1(   3)  ---------------------------------------


     EDDAV:  cpu time      7.3211: real time      7.4597
 BZINTS: Fermi energy:   12.305239;  156.000000 electrons
         Band energy:-0.124841E+04;  BLOECHL correction:   -0.066259
       DOS:  cpu time      0.1321: real time      0.1398
    --------------------------------------------
      LOOP:  cpu time      7.4532: real time      7.5995

 eigenvalue-minimisations  : 50656
 total energy-change (2. order) :-0.1089807E+03  (-0.1073939E+03)
 number of electron     156.0000000 magnetization      24.4480000
 augmentation part      156.0000000 magnetization      24.4480000

 Free energy of the ion-electron system (eV)
  ---------------------------------------------------
  alpha Z        PSCENC =      1149.93330786
  Ewald energy   TEWEN  =    -18412.59496304
  -Hartree energ DENC   =     -5830.89849770
  -exchange      EXHF   =         0.00000000
  -V(xc)+E(xc)   XCENC  =       659.28646013
  PAW double counting   =     20094.29161917   -20818.24952962
  entropy T*S    EENTRO =         0.00000000
  eigenvalues    EBANDS =     -1248.40540119
  atomic energy  EATOM  =     24304.10294433
  Solvation  Ediel_sol  =         0.00000000
  ---------------------------------------------------
  free energy    TOTEN  =      -102.53406006 eV

  energy without entropy =     -102.53406006  energy(sigma->0) =     -102.53406006


--------------------------------------------------------------------------------------------------------




--------------------------------------- Iteration      1(   4)  ---------------------------------------


     EDDAV:  cpu time      6.1133: real time      6.1557
 BZINTS: Fermi energy:   12.300468;  156.000000 electrons
         Band energy:-0.124994E+04;  BLOECHL correction:   -0.066500
       DOS:  cpu time      0.1288: real time      0.1298
    --------------------------------------------
      LOOP:  cpu time      6.2420: real time      6.2854

 eigenvalue-minimisations  : 45984
 total energy-change (2. order) :-0.1538795E+01  (-0.1538332E+01)
 number of electron     156.0000000 magnetization      24.4480000
 augmentation part      156.0000000 magnetization      24.4480000

 Free energy of the ion-electron system (eV)
  ---------------------------------------------------
  alpha Z        PSCENC =      1149.93330786
  Ewald energy   TEWEN  =    -18412.59496304
  -Hartree energ DENC   =     -5830.89849770
  -exchange      EXHF   =         0.00000000
  -V(xc)+E(xc)   XCENC  =       659.28646013
  PAW double counting   =     20094.29161917   -20818.24952962
  entropy T*S    EENTRO =         0.00000000
  eigenvalues    EBANDS =     -1249.94419636
  atomic energy  EATOM  =     24304.10294433
  Solvation  Ediel_sol  =         0.00000000
  ---------------------------------------------------
  free energy    TOTEN  =      -104.07285523 eV

  energy without entropy =     -104.07285523  energy(sigma->0) =     -104.07285523


--------------------------------------------------------------------------------------------------------




--------------------------------------- Iteration      1(   5)  ---------------------------------------


     EDDAV:  cpu time      7.2674: real time      7.3135
 BZINTS: Fermi energy:   12.300424;  156.000000 electrons
         Band energy:-0.124997E+04;  BLOECHL correction:   -0.066500
       DOS:  cpu time      0.1299: real time      0.1312
    CHARGE:  cpu time      0.1565: real time      0.1604
    MIXING:  cpu time      0.0119: real time      0.0126
    --------------------------------------------
      LOOP:  cpu time      7.5658: real time      7.6176

 eigenvalue-minimisations  : 52608
 total energy-change (2. order) :-0.2819682E-01  (-0.2819626E-01)
 number of electron     156.0000018 magnetization      22.5385316
 augmentation part       79.3839306 magnetization      17.0050121

 Broyden mixing:
  rms(total) = 0.40982E+01    rms(broyden)= 0.40974E+01
  rms(prec ) = 0.45387E+01
  weight for this iteration     100.00

 Free energy of the ion-electron system (eV)
  ---------------------------------------------------
  alpha Z        PSCENC =      1149.93330786
  Ewald energy   TEWEN  =    -18412.59496304
  -Hartree energ DENC   =     -5830.89849770
  -exchange      EXHF   =         0.00000000
  -V(xc)+E(xc)   XCENC  =       659.28646013
  PAW double counting   =     20094.29161917   -20818.24952962
  entropy T*S    EENTRO =         0.00000000
  eigenvalues    EBANDS =     -1249.97239318
  atomic energy  EATOM  =     24304.10294433
  Solvation  Ediel_sol  =         0.00000000
  ---------------------------------------------------
  free energy    TOTEN  =      -104.10105205 eV

  energy without entropy =     -104.10105205  energy(sigma->0) =     -104.10105205


--------------------------------------------------------------------------------------------------------




--------------------------------------- Iteration      1(   6)  ---------------------------------------


    POTLOK:  cpu time      0.0695: real time      0.0740
    SETDIJ:  cpu time      0.0148: real time      0.0158
     EDDAV:  cpu time      6.4315: real time      6.4756
 BZINTS: Fermi energy:    9.712498;  156.000000 electrons
         Band energy:-0.164807E+04;  BLOECHL correction:   -0.075018
       DOS:  cpu time      0.1350: real time      0.1359
    CHARGE:  cpu time      0.1468: real time      0.1477
    MIXING:  cpu time      0.0042: real time      0.0090
    --------------------------------------------
      LOOP:  cpu time      6.8019: real time      6.8580

 eigenvalue-minimisations  : 48352
 total energy-change (2. order) : 0.4582925E+01  (-0.6076186E+01)
 number of electron     156.0000020 magnetization      21.7939281
 augmentation part       87.6648474 magnetization      16.8030843

 Broyden mixing:
  rms(total) = 0.32299E+01    rms(broyden)= 0.32295E+01
  rms(prec ) = 0.39567E+01
  weight for this iteration     100.00

 eigenvalues of (default mixing * dielectric matrix)
  average eigenvalue GAMMA=   0.5138
  0.5138

 Free energy of the ion-electron system (eV)
  ---------------------------------------------------
  alpha Z        PSCENC =      1149.93330786
  Ewald energy   TEWEN  =    -18412.59496304
  -Hartree energ DENC   =     -5431.60607825
  -exchange      EXHF   =         0.00000000
  -V(xc)+E(xc)   XCENC  =       641.58077471
  PAW double counting   =     20642.22950160   -21345.09179867
  entropy T*S    EENTRO =         0.00000000
  eigenvalues    EBANDS =     -1648.07181562
  atomic energy  EATOM  =     24304.10294433
  Solvation  Ediel_sol  =         0.00000000
  ---------------------------------------------------
  free energy    TOTEN  =       -99.51812708 eV

  energy without entropy =      -99.51812708  energy(sigma->0) =      -99.51812708


--------------------------------------------------------------------------------------------------------




--------------------------------------- Iteration      1(   7)  ---------------------------------------


    POTLOK:  cpu time      0.0373: real time      0.0431
    SETDIJ:  cpu time      0.0081: real time      0.0082
     EDDAV:  cpu time      6.6806: real time      6.7243
 BZINTS: Fermi energy:   10.945767;  156.000000 electrons
         Band energy:-0.145894E+04;  BLOECHL correction:   -0.052886
       DOS:  cpu time      0.1358: real time      0.1367
    CHARGE:  cpu time      0.1461: real time      0.1471
    MIXING:  cpu time      0.0020: real time      0.0032
    --------------------------------------------
      LOOP:  cpu time      7.0099: real time      7.0627

 eigenvalue-minimisations  : 49792
 total energy-change (2. order) : 0.3244910E+01  (-0.8566322E+01)
 number of electron     156.0000020 magnetization      21.2519829
 augmentation part       83.2365571 magnetization      15.5650618

 Broyden mixing:
  rms(total) = 0.22475E+01    rms(broyden)= 0.22472E+01
  rms(prec ) = 0.25969E+01
  weight for this iteration     100.00

 eigenvalues of (default mixing * dielectric matrix)
  average eigenvalue GAMMA=   0.6967
  1.0596  0.3338

 Free energy of the ion-electron system (eV)
  ---------------------------------------------------
  alpha Z        PSCENC =      1149.93330786
  Ewald energy   TEWEN  =    -18412.59496304
  -Hartree energ DENC   =     -5588.95212039
  -exchange      EXHF   =         0.00000000
  -V(xc)+E(xc)   XCENC  =       647.14803562
  PAW double counting   =     21317.08184641   -22054.04995071
  entropy T*S    EENTRO =         0.00000000
  eigenvalues    EBANDS =     -1458.94231671
  atomic energy  EATOM  =     24304.10294433
  Solvation  Ediel_sol  =         0.00000000
  ---------------------------------------------------
  free energy    TOTEN  =       -96.27321663 eV

  energy without entropy =      -96.27321663  energy(sigma->0) =      -96.27321663


--------------------------------------------------------------------------------------------------------




--------------------------------------- Iteration      1(   8)  ---------------------------------------


    POTLOK:  cpu time      0.0384: real time      0.0435
    SETDIJ:  cpu time      0.0081: real time      0.0082
     EDDAV:  cpu time      6.6592: real time      6.7033
 BZINTS: Fermi energy:   10.485825;  156.000000 electrons
         Band energy:-0.151059E+04;  BLOECHL correction:   -0.049499
       DOS:  cpu time      0.1347: real time      0.1356
    CHARGE:  cpu time      0.1471: real time      0.1482
    MIXING:  cpu time      0.0018: real time      0.0018
    --------------------------------------------
      LOOP:  cpu time      6.9893: real time      7.0405

 eigenvalue-minimisations  : 49472
 total energy-change (2. order) : 0.2561309E+01  (-0.5764345E+00)
 number of electron     156.0000021 magnetization      21.3657035
 augmentation part       84.5240492 magnetization      15.8821656

 Broyden mixing:
  rms(total) = 0.11819E+01    rms(broyden)= 0.11817E+01
  rms(prec ) = 0.16528E+01
  weight for this iteration     100.00

 eigenvalues of (default mixing * dielectric matrix)
  average eigenvalue GAMMA=   0.7017
  1.1248  0.6040  0.3764

 Free energy of the ion-electron system (eV)
  ---------------------------------------------------
  alpha Z        PSCENC =      1149.93330786
  Ewald energy   TEWEN  =    -18412.59496304
  -Hartree energ DENC   =     -5525.21341043
  -exchange      EXHF   =         0.00000000
  -V(xc)+E(xc)   XCENC  =       645.73767952
  PAW double counting   =     21788.26178308   -22533.35210940
  entropy T*S    EENTRO =         0.00000000
  eigenvalues    EBANDS =     -1510.58713995
  atomic energy  EATOM  =     24304.10294433
  Solvation  Ediel_sol  =         0.00000000
  ---------------------------------------------------
  free energy    TOTEN  =       -93.71190803 eV

  energy without entropy =      -93.71190803  energy(sigma->0) =      -93.71190803


--------------------------------------------------------------------------------------------------------




--------------------------------------- Iteration      1(   9)  ---------------------------------------


    POTLOK:  cpu time      0.0387: real time      0.0445
    SETDIJ:  cpu time      0.0084: real time      0.0085
     EDDAV:  cpu time      7.1394: real time      7.1858
 BZINTS: Fermi energy:   10.529099;  156.000000 electrons
         Band energy:-0.152004E+04;  BLOECHL correction:   -0.030082
       DOS:  cpu time      0.1359: real time      0.1368
    CHARGE:  cpu time      0.1476: real time      0.1486
    MIXING:  cpu time      0.0019: real time      0.0019
    --------------------------------------------
      LOOP:  cpu time      7.4720: real time      7.5260

 eigenvalue-minimisations  : 52224
 total energy-change (2. order) :-0.1603037E+01  (-0.2508925E+01)
 number of electron     156.0000020 magnetization      21.5148370
 augmentation part       84.6979928 magnetization      16.3359219

 Broyden mixing:
  rms(total) = 0.22627E+01    rms(broyden)= 0.22623E+01
  rms(prec ) = 0.36000E+01
  weight for this iteration     100.00

 eigenvalues of (default mixing * dielectric matrix)
  average eigenvalue GAMMA=   0.6518
  1.3155  0.8250  0.3609  0.1058

 Free energy of the ion-electron system (eV)
  ---------------------------------------------------
  alpha Z        PSCENC =      1149.93330786
  Ewald energy   TEWEN  =    -18412.59496304
  -Hartree energ DENC   =     -5514.85006225
  -exchange      EXHF   =         0.00000000
  -V(xc)+E(xc)   XCENC  =       645.78756417
  PAW double counting   =     21905.77254732   -22653.42942427
  entropy T*S    EENTRO =         0.00000000
  eigenvalues    EBANDS =     -1520.03685893
  atomic energy  EATOM  =     24304.10294433
  Solvation  Ediel_sol  =         0.00000000
  ---------------------------------------------------
  free energy    TOTEN  =       -95.31494482 eV

  energy without entropy =      -95.31494482  energy(sigma->0) =      -95.31494482


--------------------------------------------------------------------------------------------------------




--------------------------------------- Iteration      1(  10)  ---------------------------------------


    POTLOK:  cpu time      0.0385: real time      0.0442
    SETDIJ:  cpu time      0.0079: real time      0.0079
     EDDAV:  cpu time      7.1007: real time      7.1493
 BZINTS: Fermi energy:   10.350484;  156.000000 electrons
         Band energy:-0.152956E+04;  BLOECHL correction:   -0.055778
       DOS:  cpu time      0.1359: real time      0.1369
    CHARGE:  cpu time      0.1454: real time      0.1465
    MIXING:  cpu time      0.0021: real time      0.0023
    --------------------------------------------
      LOOP:  cpu time      7.4304: real time      7.4872

 eigenvalue-minimisations  : 52448
 total energy-change (2. order) : 0.1578193E+01  (-0.1501451E+01)
 number of electron     156.0000021 magnetization      21.6312765
 augmentation part       85.0406200 magnetization      16.3172876

 Broyden mixing:
  rms(total) = 0.12087E+01    rms(broyden)= 0.12084E+01
  rms(prec ) = 0.16058E+01
  weight for this iteration     100.00

 eigenvalues of (default mixing * dielectric matrix)
  average eigenvalue GAMMA=   0.6093
  1.3754  0.9091  0.3238  0.3238  0.1143

 Free energy of the ion-electron system (eV)
  ---------------------------------------------------
  alpha Z        PSCENC =      1149.93330786
  Ewald energy   TEWEN  =    -18412.59496304
  -Hartree energ DENC   =     -5498.53981882
  -exchange      EXHF   =         0.00000000
  -V(xc)+E(xc)   XCENC  =       645.84087872
  PAW double counting   =     22132.40243926   -22885.31688255
  entropy T*S    EENTRO =         0.00000000
  eigenvalues    EBANDS =     -1529.56465729
  atomic energy  EATOM  =     24304.10294433
  Solvation  Ediel_sol  =         0.00000000
  ---------------------------------------------------
  free energy    TOTEN  =       -93.73675153 eV

  energy without entropy =      -93.73675153  energy(sigma->0) =      -93.73675153


--------------------------------------------------------------------------------------------------------




--------------------------------------- Iteration      1(  11)  ---------------------------------------


    POTLOK:  cpu time      0.0366: real time      0.0439
    SETDIJ:  cpu time      0.0082: real time      0.0083
     EDDAV:  cpu time      6.7942: real time      6.8386
 BZINTS: Fermi energy:   10.356433;  156.000000 electrons
         Band energy:-0.152883E+04;  BLOECHL correction:   -0.060739
       DOS:  cpu time      0.2349: real time      0.2364
    CHARGE:  cpu time      0.1441: real time      0.1449
    MIXING:  cpu time      0.0018: real time      0.0018
    --------------------------------------------
      LOOP:  cpu time      7.2198: real time      7.2740

 eigenvalue-minimisations  : 50688
 total energy-change (2. order) : 0.4627932E+00  (-0.4445710E+00)
 number of electron     156.0000021 magnetization      22.0611218
 augmentation part       85.0052860 magnetization      16.7148666

 Broyden mixing:
  rms(total) = 0.71656E+00    rms(broyden)= 0.71637E+00
  rms(prec ) = 0.89619E+00
  weight for this iteration     100.00

 eigenvalues of (default mixing * dielectric matrix)
  average eigenvalue GAMMA=   0.6563
  1.7563  1.0544  0.4955  0.4036  0.1139  0.1139

 Free energy of the ion-electron system (eV)
  ---------------------------------------------------
  alpha Z        PSCENC =      1149.93330786
  Ewald energy   TEWEN  =    -18412.59496304
  -Hartree energ DENC   =     -5497.28242702
  -exchange      EXHF   =         0.00000000
  -V(xc)+E(xc)   XCENC  =       645.98034873
  PAW double counting   =     22195.34991039   -22949.93274294
  entropy T*S    EENTRO =         0.00000000
  eigenvalues    EBANDS =     -1528.83033665
  atomic energy  EATOM  =     24304.10294433
  Solvation  Ediel_sol  =         0.00000000
  ---------------------------------------------------
  free energy    TOTEN  =       -93.27395835 eV

  energy without entropy =      -93.27395835  energy(sigma->0) =      -93.27395835


--------------------------------------------------------------------------------------------------------




--------------------------------------- Iteration      1(  12)  ---------------------------------------


    POTLOK:  cpu time      0.0375: real time      0.0440
    SETDIJ:  cpu time      0.0078: real time      0.0079
     EDDAV:  cpu time      6.8771: real time      6.9242
 BZINTS: Fermi energy:   10.381028;  156.000000 electrons
         Band energy:-0.152618E+04;  BLOECHL correction:   -0.063698
       DOS:  cpu time      0.1345: real time      0.1354
    CHARGE:  cpu time      0.1480: real time      0.1488
    MIXING:  cpu time      0.0019: real time      0.0019
    --------------------------------------------
      LOOP:  cpu time      7.2067: real time      7.2622

 eigenvalue-minimisations  : 51296
 total energy-change (2. order) : 0.5751190E-01  (-0.5684618E-01)
 number of electron     156.0000021 magnetization      22.4773186
 augmentation part       84.9590788 magnetization      17.0718770

 Broyden mixing:
  rms(total) = 0.44597E+00    rms(broyden)= 0.44592E+00
  rms(prec ) = 0.49621E+00
  weight for this iteration     100.00

 eigenvalues of (default mixing * dielectric matrix)
  average eigenvalue GAMMA=   0.6922
  2.0254  0.9268  0.6382  0.6382  0.3754  0.1347  0.1066

 Free energy of the ion-electron system (eV)
  ---------------------------------------------------
  alpha Z        PSCENC =      1149.93330786
  Ewald energy   TEWEN  =    -18412.59496304
  -Hartree energ DENC   =     -5496.04149725
  -exchange      EXHF   =         0.00000000
  -V(xc)+E(xc)   XCENC  =       646.43581954
  PAW double counting   =     22357.46820133   -23116.33540013
  entropy T*S    EENTRO =         0.00000000
  eigenvalues    EBANDS =     -1526.18485908
  atomic energy  EATOM  =     24304.10294433
  Solvation  Ediel_sol  =         0.00000000
  ---------------------------------------------------
  free energy    TOTEN  =       -93.21644644 eV

  energy without entropy =      -93.21644644  energy(sigma->0) =      -93.21644644


--------------------------------------------------------------------------------------------------------




--------------------------------------- Iteration      1(  13)  ---------------------------------------


    POTLOK:  cpu time      0.0370: real time      0.0439
    SETDIJ:  cpu time      0.0081: real time      0.0082
     EDDAV:  cpu time      7.0079: real time      7.0536
 BZINTS: Fermi energy:   10.394621;  156.000000 electrons
         Band energy:-0.152559E+04;  BLOECHL correction:   -0.060871
       DOS:  cpu time      0.1356: real time      0.1373
    CHARGE:  cpu time      0.1451: real time      0.1461
    MIXING:  cpu time      0.0019: real time      0.0019
    --------------------------------------------
      LOOP:  cpu time      7.3357: real time      7.3910

 eigenvalue-minimisations  : 51712
 total energy-change (2. order) :-0.1563295E+00  (-0.7820167E-01)
 number of electron     156.0000021 magnetization      23.1185618
 augmentation part       84.9433218 magnetization      17.6736275

 Broyden mixing:
  rms(total) = 0.70441E+00    rms(broyden)= 0.70436E+00
  rms(prec ) = 0.89031E+00
  weight for this iteration     100.00

 eigenvalues of (default mixing * dielectric matrix)
  average eigenvalue GAMMA=   0.7073
  2.3003  0.9493  0.9493  0.6799  0.3786  0.1080  0.1351  0.1575

 Free energy of the ion-electron system (eV)
  ---------------------------------------------------
  alpha Z        PSCENC =      1149.93330786
  Ewald energy   TEWEN  =    -18412.59496304
  -Hartree energ DENC   =     -5494.84919632
  -exchange      EXHF   =         0.00000000
  -V(xc)+E(xc)   XCENC  =       646.62093469
  PAW double counting   =     22453.15629211   -23214.15593468
  entropy T*S    EENTRO =         0.00000000
  eigenvalues    EBANDS =     -1525.58616088
  atomic energy  EATOM  =     24304.10294433
  Solvation  Ediel_sol  =         0.00000000
  ---------------------------------------------------
  free energy    TOTEN  =       -93.37277593 eV

  energy without entropy =      -93.37277593  energy(sigma->0) =      -93.37277593


--------------------------------------------------------------------------------------------------------




--------------------------------------- Iteration      1(  14)  ---------------------------------------


    POTLOK:  cpu time      0.0435: real time      0.0444
    SETDIJ:  cpu time      0.0078: real time      0.0079
     EDDAV:  cpu time      6.7900: real time      6.8461
 BZINTS: Fermi energy:   10.408415;  156.000000 electrons
[...]
    113      25.7872      0.00000
    114      26.2368      0.00000
    115      26.2375      0.00000
    116      26.6111      0.00000
    117      26.6125      0.00000
    118      27.5183      0.00000
    119      27.5202      0.00000
    120      28.2443      0.00000
    121      28.2483      0.00000
    122      28.2968      0.00000
    123      28.7503      0.00000
    124      29.9355      0.00000
    125      29.9363      0.00000
    126      30.3442      0.00000
    127      30.3449      0.00000
    128      31.0931      0.00000


--------------------------------------------------------------------------------------------------------


 soft charge-density along one line, spin component           1
         0         1         2         3         4         5         6         7         8         9
 total charge-density along one line
 
 soft charge-density along one line, spin component           2
         0         1         2         3         4         5         6         7         8         9
 total charge-density along one line
 
 pseudopotential strength for first ion, spin component:           1
-44.532  -0.000  -0.000   7.434   0.000   0.000  -0.000   0.000
 -0.000 -44.532   0.000   0.000   7.434  -0.000  -0.000   0.000
 -0.000   0.000 -44.425   0.000  -0.000   7.390   0.000  -0.000
  7.434   0.000   0.000   5.675   0.000   0.000  -0.000  -0.000
  0.000   7.434  -0.000   0.000   5.675  -0.000   0.000  -0.000
  0.000  -0.000   7.390   0.000  -0.000   5.683  -0.000   0.000
 -0.000  -0.000   0.000  -0.000   0.000  -0.000  -1.685   0.000
  0.000   0.000  -0.000  -0.000  -0.000   0.000   0.000  -1.768
 -0.000   0.000   0.000   0.000  -0.000  -0.000   0.000  -0.000
 -0.000  -0.000   0.000   0.000   0.000  -0.000  -0.000  -0.000
 -0.000  -0.000  -0.000   0.000   0.000   0.000   0.000   0.000
 -0.000  -0.000   0.000  -0.000   0.000  -0.000  -2.205   0.000
  0.000   0.000  -0.000  -0.000  -0.000   0.000   0.000  -2.286
 -0.000   0.000   0.000   0.000  -0.000  -0.000   0.000  -0.000
 -0.000  -0.000   0.000   0.000   0.000  -0.000  -0.000  -0.000
 -0.000  -0.000   0.000   0.000   0.000   0.000   0.000   0.000
 -0.000  -0.000   0.000  -0.000   0.000   0.000   0.000   0.000
 -0.000  -0.000   0.000  -0.000   0.000   0.000   0.000   0.000
 pseudopotential strength for first ion, spin component:           2
-42.265  -0.000  -0.000   6.478   0.000   0.000  -0.000  -0.000
 -0.000 -42.264   0.000   0.000   6.478  -0.000   0.000   0.000
 -0.000   0.000 -42.201   0.000  -0.000   6.452   0.000   0.000
  6.478   0.000   0.000   5.940   0.000   0.000   0.000   0.000
  0.000   6.478  -0.000   0.000   5.940  -0.000  -0.000  -0.000
  0.000  -0.000   6.452   0.000  -0.000   5.946  -0.000  -0.000
 -0.000   0.000   0.000   0.000  -0.000  -0.000   0.110   0.000
 -0.000   0.000   0.000   0.000  -0.000  -0.000   0.000   0.073
 -0.000   0.000   0.000   0.000   0.000  -0.000   0.000  -0.000
  0.000  -0.000  -0.000  -0.000   0.000   0.000  -0.000  -0.000
 -0.000   0.000  -0.000   0.000  -0.000   0.000   0.000   0.000
  0.000   0.000   0.000   0.000  -0.000  -0.000  -0.439   0.000
 -0.000   0.000   0.000   0.000  -0.000  -0.000   0.000  -0.475
 -0.000   0.000   0.000   0.000   0.000  -0.000   0.000  -0.000
  0.000  -0.000  -0.000  -0.000  -0.000   0.000  -0.000  -0.000
 -0.000  -0.000  -0.000   0.000  -0.000   0.000   0.000   0.000
 -0.000   0.000   0.000  -0.000  -0.000  -0.000   0.000   0.000
 -0.000   0.000   0.000  -0.000  -0.000  -0.000   0.000   0.000
 total augmentation occupancy for first ion, spin component:           1
  1.992  -0.000   0.000  -0.025   0.000   0.000   0.000   0.000  -0.000   0.000  -0.000   0.000  -0.000   0.000  -0.000   0.000
 -0.000   1.992   0.000  -0.000  -0.025   0.000  -0.000  -0.000   0.000   0.000  -0.000  -0.000   0.000  -0.000   0.000   0.000
  0.000   0.000   1.992   0.000  -0.000  -0.025  -0.000  -0.000   0.000   0.000   0.000  -0.000   0.000   0.000  -0.000   0.000
 -0.025  -0.000   0.000   0.197   0.000   0.000  -0.000   0.000   0.000   0.000   0.000  -0.000  -0.001   0.000  -0.000   0.000
  0.000  -0.025  -0.000   0.000   0.197   0.000   0.000   0.000  -0.000  -0.000  -0.000   0.000   0.000   0.000   0.000   0.000
  0.000   0.000  -0.025   0.000   0.000   0.176   0.000   0.000   0.000   0.000   0.000   0.000   0.000   0.000  -0.000   0.000
  0.000  -0.000  -0.000  -0.000   0.000   0.000   3.045  -0.000  -0.000   0.000  -0.000  -1.814  -0.000   0.000  -0.000  -0.000
  0.000  -0.000  -0.000   0.000   0.000   0.000  -0.000   3.346   0.000   0.000   0.000   0.000  -2.396   0.000   0.000  -0.000
 -0.000   0.000   0.000   0.000  -0.000   0.000  -0.000   0.000   3.488  -0.000   0.168   0.000  -0.000  -2.137  -0.000  -0.088
  0.000   0.000   0.000   0.000  -0.000   0.000   0.000   0.000  -0.000   3.061  -0.000  -0.000   0.000  -0.000  -1.825  -0.000
 -0.000  -0.000   0.000   0.000  -0.000   0.000  -0.000   0.000   0.168  -0.000   3.304  -0.000   0.000  -0.088  -0.000  -2.042
  0.000  -0.000  -0.000  -0.000   0.000   0.000  -1.814   0.000   0.000  -0.000  -0.000   1.994   0.000   0.000   0.000  -0.000
 -0.000   0.000   0.000  -0.001   0.000   0.000  -0.000  -2.396  -0.000   0.000   0.000   0.000   2.747   0.000   0.000   0.000
  0.000  -0.000   0.000   0.000   0.000   0.000   0.000   0.000  -2.137  -0.000  -0.088   0.000   0.000   2.059  -0.000   0.015
 -0.000   0.000  -0.000  -0.000   0.000  -0.000  -0.000   0.000  -0.000  -1.825  -0.000   0.000   0.000  -0.000   2.001  -0.000
  0.000   0.000   0.000   0.000   0.000   0.000  -0.000  -0.000  -0.088  -0.000  -2.042  -0.000   0.000   0.015  -0.000   2.045
 -0.000   0.000   0.000   0.000  -0.000  -0.000   0.000   0.000  -0.116   0.000   0.199  -0.000   0.000   0.087  -0.000  -0.150
  0.000  -0.000   0.000   0.000   0.000   0.000   0.000  -0.000   0.007   0.000  -0.013   0.000   0.000  -0.005   0.000   0.009
 total augmentation occupancy for first ion, spin component:           2
 -0.002  -0.000   0.000  -0.009  -0.000   0.000  -0.000  -0.000   0.000   0.000   0.000   0.000   0.000   0.000  -0.000  -0.000
 -0.000  -0.002  -0.000   0.000  -0.009   0.000  -0.000   0.000  -0.000  -0.000   0.000  -0.000   0.000   0.000   0.000  -0.000
  0.000  -0.000  -0.002   0.000  -0.000  -0.010   0.000  -0.000  -0.000  -0.000  -0.000  -0.000  -0.000   0.000   0.000   0.000
 -0.009   0.000   0.000  -0.005   0.000  -0.000   0.000   0.000  -0.000   0.000   0.000   0.000  -0.000   0.000   0.000   0.000
 -0.000  -0.009  -0.000   0.000  -0.005   0.000  -0.000   0.000  -0.000  -0.000  -0.000  -0.000   0.000   0.000  -0.000  -0.000
  0.000   0.000  -0.010  -0.000   0.000  -0.010   0.000  -0.000  -0.000  -0.000   0.000   0.000   0.000  -0.000  -0.000   0.000
 -0.000  -0.000   0.000   0.000  -0.000   0.000   2.391   0.000  -0.000  -0.000   0.000  -1.050   0.000   0.000  -0.000  -0.000
 -0.000   0.000  -0.000   0.000   0.000  -0.000   0.000   2.281   0.000   0.000   0.000   0.000  -0.892   0.000  -0.000  -0.000
  0.000  -0.000  -0.000  -0.000  -0.000  -0.000  -0.000   0.000   2.706   0.000   0.089   0.000   0.000  -1.144   0.000  -0.092
  0.000  -0.000  -0.000   0.000  -0.000  -0.000  -0.000   0.000   0.000   2.405  -0.000  -0.000   0.000  -0.000  -1.058   0.000
  0.000   0.000  -0.000   0.000  -0.000   0.000   0.000   0.000   0.089  -0.000   2.613  -0.000   0.000  -0.092  -0.000  -1.044
  0.000  -0.000  -0.000   0.000  -0.000   0.000  -1.050   0.000   0.000  -0.000  -0.000   0.251  -0.000  -0.000   0.000  -0.000
  0.000   0.000  -0.000  -0.000   0.000   0.000   0.000  -0.892   0.000   0.000   0.000  -0.000   0.081   0.000  -0.000   0.000
  0.000   0.000   0.000   0.000   0.000  -0.000   0.000   0.000  -1.144  -0.000  -0.092  -0.000   0.000   0.334  -0.000   0.106
 -0.000   0.000   0.000   0.000  -0.000  -0.000  -0.000  -0.000   0.000  -1.058  -0.000   0.000  -0.000  -0.000   0.257   0.000
 -0.000  -0.000   0.000   0.000  -0.000   0.000  -0.000  -0.000  -0.092   0.000  -1.044  -0.000   0.000   0.106   0.000   0.217
  0.000   0.000  -0.000  -0.000   0.000   0.000   0.000   0.000  -0.031  -0.000   0.053   0.000   0.000   0.032  -0.000  -0.054
  0.000  -0.000   0.000   0.000  -0.000   0.000   0.000  -0.000   0.003   0.000  -0.005   0.000  -0.000  -0.000   0.000   0.001


------------------------ aborting loop because EDIFF is reached ----------------------------------------





 total charge

# of ion       s       p       d       tot
------------------------------------------
    1        0.362   6.357   6.060  12.779
    2        0.362   6.356   6.058  12.777
    3        0.362   6.357   6.060  12.779
    4        0.363   6.357   6.056  12.776
    5        0.363   6.357   6.060  12.779
    6        0.363   6.357   6.060  12.779
    7        0.362   6.357   6.060  12.779
    8        0.362   6.356   6.058  12.777
    9        0.362   6.357   6.060  12.779
   10        0.790   0.764   8.063   9.617
   11        0.790   0.764   8.065   9.618
   12        0.790   0.764   8.065   9.618
--------------------------------------------------
tot          5.630  59.501  78.726 143.857



 magnetization (x)

# of ion       s       p       d       tot
------------------------------------------
    1       -0.003  -0.016   2.642   2.623
    2       -0.003  -0.016   2.644   2.625
    3       -0.003  -0.016   2.642   2.623
    4       -0.003  -0.016   2.640   2.621
    5       -0.003  -0.016   2.641   2.623
    6       -0.003  -0.016   2.641   2.623
    7       -0.003  -0.016   2.642   2.623
    8       -0.003  -0.016   2.644   2.625
    9       -0.003  -0.016   2.642   2.623
   10       -0.040  -0.100   0.430   0.290
   11       -0.040  -0.100   0.431   0.291
   12       -0.040  -0.100   0.431   0.291
--------------------------------------------------
tot         -0.145  -0.441  25.068  24.482
 
    CHARGE:  cpu time      0.1453: real time      0.1462
    FORLOC:  cpu time      0.0020: real time      0.0020
    FORNL :  cpu time      0.6910: real time      0.6952
    STRESS:  cpu time      4.2295: real time      4.2676
    FORCOR:  cpu time      0.0209: real time      0.0213
    FORHAR:  cpu time      0.0024: real time      0.0025
    MIXING:  cpu time      0.0038: real time      0.0038
    OFIELD:  cpu time      0.0007: real time      0.0009

  FORCE on cell =-STRESS in cart. coord.  units (eV):
  Direction    XX          YY          ZZ          XY          YZ          ZX
  --------------------------------------------------------------------------------------
  Alpha Z  1149.93331  1149.93331  1149.93331
  Ewald   -6137.19701 -6137.19701 -6138.22000    -0.00000     0.00000     0.00000
  Hartree  1831.04848  1831.04848  1830.47147    -0.00000    -0.00000    -0.00000
  E(xc)    -946.35266  -946.35266  -946.35165    -0.00000    -0.00000     0.00000
  Local    1178.69288  1178.69288  1180.27898     0.00000     0.00000    -0.00000
  n-local  -203.06558  -217.22916  -210.20261    15.93668    -0.04682    -0.00381
  augment  1437.20681  1437.20681  1437.22508     0.00000     0.00000     0.00000
  Kinetic  1710.95185  1702.61939  1706.78215     1.10039     0.31122     0.78394
  Fock        0.00000     0.00000     0.00000     0.00000     0.00000     0.00000
  -------------------------------------------------------------------------------------
  Total       9.97004     9.97004     9.91673     0.00000     0.00000     0.00000
  in kB     107.93095   107.93095   107.35379     0.00000     0.00000     0.00000
  external pressure =      107.74 kB  Pullay stress =        0.00 kB


 VOLUME and BASIS-vectors are now :
 -----------------------------------------------------------------------------
  energy-cutoff  :      520.00
  volume of cell :      148.00
      direct lattice vectors                 reciprocal lattice vectors
     3.666471447  0.000000000  0.000000000     0.272741794  0.000000000  0.000000000
     0.000000000  3.666471447  0.000000000     0.000000000  0.272741794  0.000000000
     0.000000000  0.000000000 11.009436753     0.000000000  0.000000000  0.090831168

  length of vectors
     3.666471447  3.666471447 11.009436753     0.272741794  0.272741794  0.090831168


 FORCES acting on ions
    electron-ion (+dipol)            ewald-force                    non-local-force                 convergence-correction
 -----------------------------------------------------------------------------------------------
   -.764E-13 0.111E-11 -.114E+01   -.226E-13 -.394E-14 0.149E+01   -.824E-20 0.598E-20 0.488E-02   0.534E-14 -.171E-13 -.354E+00
   -.765E-13 0.116E-11 0.298E-11   -.264E-13 -.129E-13 0.284E-12   0.101E-23 0.359E-24 -.111E-23   0.975E-14 -.194E-13 -.148E-11
   -.757E-13 0.874E-12 0.114E+01   -.182E-14 -.370E-13 -.149E+01   0.631E-20 0.759E-20 -.488E-02   0.620E-14 -.215E-13 0.354E+00
   0.112E-11 0.799E-11 0.495E-11   -.100E-13 0.141E-13 -.114E-12   -.168E-23 -.127E-23 -.271E-24   -.146E-12 0.452E-14 0.104E-11
   0.112E-11 -.433E-11 -.138E+01   0.101E-13 0.192E-14 0.145E+01   0.371E-21 -.268E-20 -.195E-02   -.149E-12 0.190E-13 -.687E-01
   0.112E-11 -.498E-11 0.138E+01   -.525E-13 0.796E-15 -.145E+01   -.616E-21 0.277E-20 0.195E-02   -.136E-12 0.155E-13 0.687E-01
   0.112E-11 -.713E-13 -.114E+01   0.919E-15 0.248E-13 0.149E+01   0.195E-20 0.264E-20 0.488E-02   -.109E-12 -.126E-13 -.354E+00
   0.113E-11 -.665E-13 0.571E-11   0.163E-13 0.178E-13 0.284E-12   0.365E-24 0.103E-23 -.111E-23   -.109E-12 -.197E-13 -.144E-11
   0.112E-11 -.592E-13 0.114E+01   0.475E-14 -.658E-14 -.149E+01   -.209E-20 -.835E-21 -.488E-02   -.112E-12 -.161E-13 0.354E+00
   -.413E-13 -.436E-13 -.902E-13   0.157E-13 -.123E-13 0.000E+00   0.653E-25 0.116E-24 -.601E-25   0.261E-13 0.803E-14 0.805E-12
   -.410E-13 -.431E-13 -.669E+00   0.345E-14 0.103E-13 0.715E+00   0.441E-21 0.156E-20 -.359E-02   0.267E-13 0.583E-14 -.453E-01
   -.406E-13 -.424E-13 0.669E+00   0.423E-13 -.174E-13 -.715E+00   -.120E-20 0.157E-21 0.359E-02   0.253E-13 0.683E-14 0.453E-01
 -----------------------------------------------------------------------------------------------
   0.638E-11 0.149E-11 0.321E-10   -.199E-13 -.203E-13 -.162E-12   -.307E-20 0.172E-19 0.867E-18   -.661E-12 -.467E-13 -.292E-12
 
 
 POSITION                                       TOTAL-FORCE (eV/Angst)
 -----------------------------------------------------------------------------------
      0.00000      1.83324      1.83430        -0.000000      0.000000      0.010053
      0.00000      1.83324      5.50472        -0.000000      0.000000      0.000000
      0.00000      1.83324      9.17514        -0.000000      0.000000     -0.010053
      1.83324      1.83324      0.00000         0.000000     -0.000000      0.000000
      1.83324      1.83324      3.66902         0.000000     -0.000000     -0.004428
      1.83324      1.83324      7.34042        -0.000000     -0.000000      0.004428
      1.83324      0.00000      1.83430        -0.000000      0.000000      0.010053
      1.83324      0.00000      5.50472        -0.000000      0.000000      0.000000
      1.83324      0.00000      9.17514        -0.000000      0.000000     -0.010053
      0.00000      0.00000      0.00000        -0.000000      0.000000      0.000000
      0.00000      0.00000      3.66972        -0.000000      0.000000     -0.002742
      0.00000      0.00000      7.33972        -0.000000      0.000000      0.002742
 -----------------------------------------------------------------------------------
    total drift:                                0.000000      0.000000      0.000000


--------------------------------------------------------------------------------------------------------



  FREE ENERGIE OF THE ION-ELECTRON SYSTEM (eV)
  ---------------------------------------------------
  free  energy   TOTEN  =       -93.25619672 eV

  energy  without entropy=      -93.25619672  energy(sigma->0) =      -93.25619672
 


--------------------------------------------------------------------------------------------------------


    POTLOK:  cpu time      0.0389: real time      0.0394


--------------------------------------------------------------------------------------------------------


     LOOP+:  cpu time    179.7964: real time    181.2934
 -----------------------------------------------------------------------------
|                                                                             |
|           W    W    AA    RRRRR   N    N  II  N    N   GGGG   !!!           |
|           W    W   A  A   R    R  NN   N  II  NN   N  G    G  !!!           |
|           W    W  A    A  R    R  N N  N  II  N N  N  G       !!!           |
|           W WW W  AAAAAA  RRRRR   N  N N  II  N  N N  G  GGG   !            |
|           WW  WW  A    A  R   R   N   NN  II  N   NN  G    G                |
|           W    W  A    A  R    R  N    N  II  N    N   GGGG   !!!           |
|                                                                             |
|     Tetrahedron method does not include variations of the Fermi             |
|     occupations, so forces and stress will be inaccurate. We suggest        |
|     using a different smearing scheme ISMEAR = 1 or 2 for metals in         |
|     relaxations.                                                            |
|                                                                             |
 -----------------------------------------------------------------------------

    4ORBIT:  cpu time      0.0000: real time      0.0000



 total charge

# of ion       s       p       d       tot
------------------------------------------
    1        0.362   6.357   6.060  12.779
    2        0.362   6.356   6.058  12.777
    3        0.362   6.357   6.060  12.779
    4        0.363   6.357   6.056  12.776
    5        0.363   6.357   6.060  12.779
    6        0.363   6.357   6.060  12.779
    7        0.362   6.357   6.060  12.779
    8        0.362   6.356   6.058  12.777
    9        0.362   6.357   6.060  12.779
   10        0.790   0.764   8.063   9.617
   11        0.790   0.764   8.065   9.618
   12        0.790   0.764   8.065   9.618
--------------------------------------------------
tot          5.630  59.501  78.726 143.857



 magnetization (x)

# of ion       s       p       d       tot
------------------------------------------
    1       -0.003  -0.016   2.642   2.623
    2       -0.003  -0.016   2.644   2.625
    3       -0.003  -0.016   2.642   2.623
    4       -0.003  -0.016   2.640   2.621
    5       -0.003  -0.016   2.641   2.623
    6       -0.003  -0.016   2.641   2.623
    7       -0.003  -0.016   2.642   2.623
    8       -0.003  -0.016   2.644   2.625
    9       -0.003  -0.016   2.642   2.623
   10       -0.040  -0.100   0.430   0.290
   11       -0.040  -0.100   0.431   0.291
   12       -0.040  -0.100   0.431   0.291
--------------------------------------------------
tot         -0.145  -0.441  25.068  24.482
 
 BZINTS: Fermi energy:   10.425112;  156.000000 electrons
         Band energy:-0.152469E+04;  BLOECHL correction:   -0.065492

 total amount of memory used by VASP MPI-rank0   182150. kBytes
=======================================================================

   base      :      30000. kBytes
   nonl-proj :      98316. kBytes
   fftplans  :        888. kBytes
   grid      :       6813. kBytes
   one-center:        373. kBytes
   wavefun   :      45760. kBytes
 
  
  
 General timing and accounting informations for this job:
 ========================================================
  
                  Total CPU time used (sec):      199.611
                            User time (sec):      190.068
                          System time (sec):        9.543
                         Elapsed time (sec):      206.754
  
                   Maximum memory used (kb):      906192.
                   Average memory used (kb):          N/A
  
                          Minor page faults:       189362
                          Major page faults:          664
                 Voluntary context switches:         8073
