       N       E                     dE             d eps       ncg     rms          ort
DAV:   1     0.177503551723E+04    0.17750E+04   -0.91905E+04 10752   0.195E+03
DAV:   2     0.626217842330E+01   -0.17688E+04   -0.16799E+04 10752   0.478E+02
DAV:   3    -0.102846904939E+03   -0.10911E+03   -0.10768E+03 10752   0.128E+02
DAV:   4    -0.104501662195E+03   -0.16548E+01   -0.16544E+01 10752   0.157E+01
DAV:   5    -0.104535777859E+03   -0.34116E-01   -0.34115E-01 10752   0.218E+00
SDA:   6    -0.441725613589E+02    0.60363E+02   -0.34115E-01 10752   0.677E+03 0.000E+00
CGA:   7    -0.619377406944E+02   -0.17765E+02   -0.13423E+02 10752   0.201E+03 0.204E+03
CGA:   8    -0.778761276601E+02   -0.15938E+02   -0.15045E+02 10752   0.361E+03 0.106E+02
CGA:   9    -0.861040798239E+02   -0.82280E+01   -0.87764E+01 10752   0.615E+02-0.101E+02
CGA:  10    -0.872597054929E+02   -0.11556E+01   -0.12176E+01 10752   0.338E+02-0.196E+01
CGA:  11    -0.888556553679E+02   -0.15959E+01   -0.15813E+01 10752   0.374E+02 0.531E+00
CGA:  12    -0.898658998774E+02   -0.10102E+01   -0.82657E+00 10752   0.213E+02 0.866E+01
CGA:  13    -0.910273816500E+02   -0.11615E+01   -0.10488E+01 10752   0.274E+02 0.283E+01
CGA:  14    -0.918035696958E+02   -0.77619E+00   -0.70882E+00 10752   0.608E+01 0.310E+01
CGA:  15    -0.919411830513E+02   -0.13761E+00   -0.15235E+00 10752   0.399E+01-0.592E+00
CGA:  16    -0.922724970754E+02   -0.33131E+00   -0.33343E+00 10752   0.110E+02 0.409E-03
CGA:  17    -0.925598472401E+02   -0.28735E+00   -0.24932E+00 10752   0.334E+01 0.172E+01
CGA:  18    -0.926778327080E+02   -0.11799E+00   -0.11773E+00 10752   0.302E+01 0.734E-02
CGA:  19    -0.927727677954E+02   -0.94935E-01   -0.96959E-01 10752   0.124E+01-0.471E-01
CGA:  20    -0.927970710005E+02   -0.24303E-01   -0.25365E-01 10752   0.609E+00-0.453E-01
CGA:  21    -0.928311194145E+02   -0.34048E-01   -0.34252E-01 10752   0.120E+01-0.161E-02
CGA:  22    -0.928651029504E+02   -0.33984E-01   -0.34655E-01 10752   0.450E+00-0.199E-01
CGA:  23    -0.928791314869E+02   -0.14029E-01   -0.14017E-01 10752   0.407E+00-0.133E-03
CGA:  24    -0.928935479150E+02   -0.14416E-01   -0.14656E-01 10752   0.181E+00-0.532E-02
CGA:  25    -0.928977617315E+02   -0.42138E-02   -0.42948E-02 10752   0.101E+00-0.296E-02
CGA:  26    -0.929043904307E+02   -0.66287E-02   -0.66348E-02 10752   0.196E+00 0.201E-04
CGA:  27    -0.929101333950E+02   -0.57430E-02   -0.58491E-02 10752   0.783E-01-0.280E-02
CGA:  28    -0.929135620897E+02   -0.34287E-02   -0.34512E-02 10752   0.114E+00-0.232E-03
CGA:  29    -0.929184110286E+02   -0.48489E-02   -0.48873E-02 10752   0.552E-01-0.425E-03
CGA:  30    -0.929199942876E+02   -0.15833E-02   -0.15925E-02 10752   0.419E-01-0.203E-03
CGA:  31    -0.929229855100E+02   -0.29912E-02   -0.29921E-02 10752   0.578E-01 0.458E-04
CGA:  32    -0.929245069831E+02   -0.15215E-02   -0.15387E-02 10752   0.231E-01-0.490E-03
CGA:  33    -0.929259649955E+02   -0.14580E-02   -0.14593E-02 10752   0.390E-01 0.104E-04
CGA:  34    -0.929272250021E+02   -0.12600E-02   -0.12634E-02 10752   0.144E-01-0.107E-03
CGA:  35    -0.929279369900E+02   -0.71199E-03   -0.71024E-03 10752   0.197E-01-0.940E-05
CGA:  36    -0.929286358547E+02   -0.69886E-03   -0.69910E-03 10752   0.505E-02-0.348E-04
SDA:  37    -0.929287883495E+02   -0.15249E-03   -0.15201E-03 10752   0.407E-02-0.711E-05
CGA:  38    -0.929289355524E+02   -0.14720E-03   -0.14699E-03 10752   0.223E-02-0.355E-05
CGA:  39    -0.929291015149E+02   -0.16596E-03   -0.16605E-03 10752   0.191E-02-0.168E-04
CGA:  40    -0.929294065122E+02   -0.30500E-03   -0.30964E-03 10752   0.153E-02-0.485E-04
CGA:  41    -0.929294605817E+02   -0.54070E-04   -0.53775E-04 10752   0.835E-03-0.540E-05
CGA:  42    -0.929295396022E+02   -0.79020E-04   -0.79249E-04 10752   0.508E-03-0.821E-05
CGA:  43    -0.929296131944E+02   -0.73592E-04   -0.73491E-04 10752   0.284E-03 0.285E-05
CGA:  44    -0.929296747276E+02   -0.61533E-04   -0.59966E-04 10752   0.492E-03 0.131E-04
CGA:  45    -0.929296928547E+02   -0.18127E-04   -0.18324E-04 10752   0.199E-03 0.640E-05
CGA:  46    -0.929297046391E+02   -0.11784E-04   -0.11881E-04 10752   0.649E-04 0.586E-05
CGA:  47    -0.929297185507E+02   -0.13912E-04   -0.13370E-04 10752   0.800E-04 0.568E-05
CGA:  48    -0.929297212940E+02   -0.27433E-05   -0.26859E-05 10752   0.257E-04 0.115E-06
CGA:  49    -0.929297209265E+02    0.36756E-06   -0.24172E-05 10752   0.396E-03-0.322E-04
CGA:  50    -0.929297289525E+02   -0.80260E-05   -0.80696E-05 10752   0.242E-04 0.197E-05
CGA:  51    -0.929297314326E+02   -0.24802E-05   -0.25744E-05 10752   0.167E-04 0.315E-05
CGA:  52    -0.929297326092E+02   -0.11766E-05   -0.13033E-05 10752   0.143E-04 0.246E-05
CGA:  53    -0.929297331458E+02   -0.53655E-06   -0.62475E-06 10752   0.298E-05 0.158E-05
   1 F= -.92929733E+02 E0= -.92931451E+02  d E =-.929297E+02  mag=     8.5372
       N       E                     dE             d eps       ncg     rms          ort
SDA:   1    -0.929227710409E+02    0.69616E-02    0.00000E+00 10752   0.231E-01 0.000E+00
CGA:   2    -0.929242859684E+02   -0.15149E-02   -0.15156E-02 10752   0.416E-01-0.594E-05
CGA:   3    -0.929279695065E+02   -0.36835E-02   -0.36833E-02 10752   0.769E-02 0.491E-06
CGA:   4    -0.929289809120E+02   -0.10114E-02   -0.10114E-02 10752   0.728E-02 0.385E-05
CGA:   5    -0.929295576562E+02   -0.57674E-03   -0.57676E-03 10752   0.462E-02 0.385E-05
CGA:   6    -0.929296834668E+02   -0.12581E-03   -0.12594E-03 10752   0.757E-03-0.227E-05
CGA:   7    -0.929298099000E+02   -0.12643E-03   -0.12655E-03 10752   0.860E-03-0.254E-05
CGA:   8    -0.929298571570E+02   -0.47257E-04   -0.47199E-04 10752   0.638E-03-0.106E-05
CGA:   9    -0.929298820622E+02   -0.24905E-04   -0.24888E-04 10752   0.118E-03-0.383E-06
CGA:  10    -0.929299058774E+02   -0.23815E-04   -0.23782E-04 10752   0.106E-03 0.404E-06
CGA:  11    -0.929299136119E+02   -0.77345E-05   -0.77558E-05 10752   0.509E-04 0.466E-06
CGA:  12    -0.929299157764E+02   -0.21645E-05   -0.21704E-05 10752   0.408E-04 0.716E-07
CGA:  13    -0.929299199279E+02   -0.41515E-05   -0.41501E-05 10752   0.846E-05-0.135E-07
CGA:  14    -0.929299204951E+02   -0.56726E-06   -0.56229E-06 10752   0.150E-04-0.122E-06
CGA:  15    -0.929299215938E+02   -0.10986E-05   -0.10840E-05 10752   0.231E-05-0.388E-06
CGA:  16    -0.929299218020E+02   -0.20819E-06   -0.20746E-06 10752   0.166E-05-0.585E-07
   2 F= -.92929922E+02 E0= -.92931668E+02  d E =-.188656E-03  mag=     8.5366
       N       E                     dE             d eps       ncg     rms          ort
SDA:   1    -0.928666961063E+02    0.63225E-01    0.00000E+00 10752   0.162E+00 0.000E+00
CGA:   2    -0.928997606467E+02   -0.33065E-01   -0.33088E-01 10752   0.389E+00-0.240E-03
CGA:   3    -0.929119903761E+02   -0.12230E-01   -0.12313E-01 10752   0.885E-01-0.213E-02
CGA:   4    -0.929206402821E+02   -0.86499E-02   -0.86503E-02 10752   0.665E-01 0.205E-04
CGA:   5    -0.929259529426E+02   -0.53127E-02   -0.53138E-02 10752   0.644E-01 0.163E-04
CGA:   6    -0.929279081055E+02   -0.19552E-02   -0.19498E-02 10752   0.796E-02 0.162E-03
CGA:   7    -0.929288648977E+02   -0.95679E-03   -0.95696E-03 10752   0.672E-02-0.784E-05
CGA:   8    -0.929296103470E+02   -0.74545E-03   -0.74547E-03 10752   0.599E-02-0.442E-05
CGA:   9    -0.929297803306E+02   -0.16998E-03   -0.16995E-03 10752   0.105E-02-0.300E-05
CGA:  10    -0.929300237351E+02   -0.24340E-03   -0.24316E-03 10752   0.743E-03 0.177E-05
CGA:  11    -0.929300725073E+02   -0.48772E-04   -0.48821E-04 10752   0.533E-03 0.114E-05
CGA:  12    -0.929300967352E+02   -0.24228E-04   -0.24272E-04 10752   0.370E-03 0.690E-06
CGA:  13    -0.929301314462E+02   -0.34711E-04   -0.34715E-04 10752   0.882E-04 0.484E-06
CGA:  14    -0.929301364827E+02   -0.50365E-05   -0.50241E-05 10752   0.122E-03-0.272E-06
CGA:  15    -0.929301453749E+02   -0.88922E-05   -0.88702E-05 10752   0.329E-04-0.859E-06
CGA:  16    -0.929301480393E+02   -0.26644E-05   -0.26577E-05 10752   0.157E-04-0.404E-06
CGA:  17    -0.929301489588E+02   -0.91945E-06   -0.92204E-06 10752   0.203E-04 0.373E-07
CGA:  18    -0.929301504535E+02   -0.14948E-05   -0.14978E-05 10752   0.491E-05 0.191E-06
CGA:  19    -0.929301508398E+02   -0.38633E-06   -0.38461E-06 10752   0.274E-05-0.728E-07
   3 F= -.92930151E+02 E0= -.92931922E+02  d E =-.417694E-03  mag=     8.5371
       N       E                     dE             d eps       ncg     rms          ort
SDA:   1    -0.929155822296E+02    0.14568E-01    0.00000E+00 10752   0.362E-01 0.000E+00
CGA:   2    -0.929218157820E+02   -0.62336E-02   -0.62333E-02 10752   0.118E+00 0.157E-05
CGA:   3    -0.929259161690E+02   -0.41004E-02   -0.40961E-02 10752   0.186E-01 0.980E-04
CGA:   4    -0.929280138673E+02   -0.20977E-02   -0.20973E-02 10752   0.173E-01 0.128E-04
CGA:   5    -0.929291899050E+02   -0.11760E-02   -0.11761E-02 10752   0.155E-01 0.510E-05
CGA:   6    -0.929297160221E+02   -0.52612E-03   -0.52694E-03 10752   0.145E-02-0.103E-04
CGA:   7    -0.929301162298E+02   -0.40021E-03   -0.40181E-03 10752   0.707E-03-0.849E-05
CGA:   8    -0.929301614380E+02   -0.45208E-04   -0.45209E-04 10752   0.884E-03-0.141E-06
CGA:   9    -0.929302073597E+02   -0.45922E-04   -0.45926E-04 10752   0.498E-03 0.166E-06
CGA:  10    -0.929302544047E+02   -0.47045E-04   -0.47046E-04 10752   0.140E-03 0.286E-06
CGA:  11    -0.929302655414E+02   -0.11137E-04   -0.11146E-04 10752   0.223E-03 0.639E-06
CGA:  12    -0.929302764008E+02   -0.10859E-04   -0.10888E-04 10752   0.640E-04 0.613E-06
CGA:  13    -0.929302815800E+02   -0.51792E-05   -0.51768E-05 10752   0.198E-04-0.179E-06
CGA:  14    -0.929302835790E+02   -0.19990E-05   -0.20020E-05 10752   0.416E-04-0.298E-06
CGA:  15    -0.929302852333E+02   -0.16543E-05   -0.16408E-05 10752   0.680E-05-0.275E-06
CGA:  16    -0.929302857918E+02   -0.55855E-06   -0.55838E-06 10752   0.385E-05-0.743E-07
   4 F= -.92930286E+02 E0= -.92932089E+02  d E =-.134952E-03  mag=     8.5439
       N       E                     dE             d eps       ncg     rms          ort
SDA:   1    -0.929033030274E+02    0.26982E-01    0.00000E+00 10752   0.124E+00 0.000E+00
CGA:   2    -0.929076129193E+02   -0.43099E-02   -0.43127E-02 10752   0.928E-01-0.696E-04
CGA:   3    -0.929225210285E+02   -0.14908E-01   -0.14909E-01 10752   0.402E-01-0.120E-04
CGA:   4    -0.929249392899E+02   -0.24183E-02   -0.24202E-02 10752   0.441E-01 0.127E-05
CGA:   5    -0.929273731049E+02   -0.24338E-02   -0.24324E-02 10752   0.239E-01 0.990E-05
CGA:   6    -0.929293239308E+02   -0.19508E-02   -0.19509E-02 10752   0.257E-02 0.146E-04
CGA:   7    -0.929296569558E+02   -0.33303E-03   -0.33323E-03 10752   0.803E-02-0.481E-05
CGA:   8    -0.929300166776E+02   -0.35972E-03   -0.35972E-03 10752   0.131E-02-0.727E-05
CGA:   9    -0.929301140396E+02   -0.97362E-04   -0.97356E-04 10752   0.813E-03-0.127E-09
CGA:  10    -0.929301675575E+02   -0.53518E-04   -0.53515E-04 10752   0.116E-02-0.191E-06
CGA:  11    -0.929302401982E+02   -0.72641E-04   -0.72640E-04 10752   0.210E-03-0.774E-07
CGA:  12    -0.929302660361E+02   -0.25838E-04   -0.25790E-04 10752   0.146E-03 0.131E-05
CGA:  13    -0.929302765766E+02   -0.10541E-04   -0.10553E-04 10752   0.143E-03 0.823E-06
CGA:  14    -0.929302816097E+02   -0.50331E-05   -0.50450E-05 10752   0.263E-04 0.293E-06
CGA:  15    -0.929302858297E+02   -0.42201E-05   -0.42698E-05 10752   0.384E-04-0.586E-06
CGA:  16    -0.929302870509E+02   -0.12211E-05   -0.12105E-05 10752   0.120E-04-0.168E-06
CGA:  17    -0.929302878313E+02   -0.78047E-06   -0.77737E-06 10752   0.485E-05-0.112E-06
   5 F= -.92930288E+02 E0= -.92932128E+02  d E =-.136991E-03  mag=     8.5535
       N       E                     dE             d eps       ncg     rms          ort
SDA:   1    -0.929275233318E+02    0.27637E-02    0.00000E+00 10752   0.162E-01 0.000E+00
CGA:   2    -0.929279943474E+02   -0.47102E-03   -0.47082E-03 10752   0.795E-02 0.503E-05
CGA:   3    -0.929295475785E+02   -0.15532E-02   -0.15531E-02 10752   0.408E-02 0.745E-06
CGA:   4    -0.929297675200E+02   -0.21994E-03   -0.21987E-03 10752   0.444E-02-0.140E-05
CGA:   5    -0.929300524226E+02   -0.28490E-03   -0.28485E-03 10752   0.200E-02-0.253E-05
CGA:   6    -0.929302224463E+02   -0.17002E-03   -0.17002E-03 10752   0.358E-03-0.205E-05
CGA:   7    -0.929302494978E+02   -0.27051E-04   -0.27066E-04 10752   0.519E-03 0.110E-05
CGA:   8    -0.929302767763E+02   -0.27278E-04   -0.27319E-04 10752   0.319E-03 0.133E-05
CGA:   9    -0.929303040043E+02   -0.27228E-04   -0.27229E-04 10752   0.702E-04 0.738E-06
CGA:  10    -0.929303073586E+02   -0.33543E-05   -0.33549E-05 10752   0.805E-04 0.806E-08
CGA:  11    -0.929303168050E+02   -0.94464E-05   -0.94531E-05 10752   0.276E-04-0.235E-06
CGA:  12    -0.929303189274E+02   -0.21223E-05   -0.21207E-05 10752   0.154E-04-0.145E-06
CGA:  13    -0.929303198283E+02   -0.90090E-06   -0.89853E-06 10752   0.179E-04-0.752E-07
CGA:  14    -0.929303208496E+02   -0.10213E-05   -0.10198E-05 10752   0.257E-05-0.467E-07
CGA:  15    -0.929303210971E+02   -0.24759E-06   -0.24578E-06 10752   0.463E-05 0.114E-06
   6 F= -.92930321E+02 E0= -.92932148E+02  d E =-.170257E-03  mag=     8.5512
       N       E                     dE             d eps       ncg     rms          ort
SDA:   1    -0.929271665639E+02    0.31543E-02    0.00000E+00 10752   0.140E-01 0.000E+00
CGA:   2    -0.929276857900E+02   -0.51923E-03   -0.51877E-03 10752   0.116E-01 0.573E-05
CGA:   3    -0.929291986042E+02   -0.15128E-02   -0.15129E-02 10752   0.694E-02-0.161E-05
CGA:   4    -0.929297578727E+02   -0.55927E-03   -0.55927E-03 10752   0.293E-02 0.573E-07
CGA:   5    -0.929299465988E+02   -0.18873E-03   -0.18869E-03 10752   0.397E-02-0.258E-05
CGA:   6    -0.929301765145E+02   -0.22992E-03   -0.22986E-03 10752   0.772E-03-0.266E-05
CGA:   7    -0.929302332513E+02   -0.56737E-04   -0.56745E-04 10752   0.299E-03 0.124E-05
CGA:   8    -0.929302528179E+02   -0.19567E-04   -0.19576E-04 10752   0.530E-03 0.773E-06
CGA:   9    -0.929302947457E+02   -0.41928E-04   -0.41927E-04 10752   0.558E-04 0.184E-05
CGA:  10    -0.929303033901E+02   -0.86444E-05   -0.86354E-05 10752   0.111E-03 0.109E-06
CGA:  11    -0.929303081825E+02   -0.47924E-05   -0.47885E-05 10752   0.560E-04-0.997E-07
CGA:  12    -0.929303114143E+02   -0.32318E-05   -0.32229E-05 10752   0.130E-04-0.394E-06
CGA:  13    -0.929303132600E+02   -0.18457E-05   -0.18622E-05 10752   0.162E-04-0.235E-06
CGA:  14    -0.929303137098E+02   -0.44987E-06   -0.44982E-06 10752   0.377E-05-0.216E-08
   7 F= -.92930314E+02 E0= -.92932128E+02  d E =-.162870E-03  mag=     8.5479
       N       E                     dE             d eps       ncg     rms          ort
SDA:   1    -0.929266377808E+02    0.36755E-02    0.00000E+00 10752   0.129E-01 0.000E+00
CGA:   2    -0.929272317304E+02   -0.59395E-03   -0.59405E-03 10752   0.151E-01-0.392E-05
CGA:   3    -0.929288822338E+02   -0.16505E-02   -0.16508E-02 10752   0.103E-01-0.817E-05
CGA:   4    -0.929295882645E+02   -0.70603E-03   -0.70605E-03 10752   0.357E-02 0.846E-06
CGA:   5    -0.929297699806E+02   -0.18172E-03   -0.18167E-03 10752   0.410E-02-0.488E-06
CGA:   6    -0.929301646143E+02   -0.39463E-03   -0.39464E-03 10752   0.532E-03-0.367E-06
CGA:   7    -0.929302359926E+02   -0.71378E-04   -0.71318E-04 10752   0.572E-03 0.108E-05
CGA:   8    -0.929302866435E+02   -0.50651E-04   -0.50646E-04 10752   0.804E-03 0.640E-06
CGA:   9    -0.929303168690E+02   -0.30225E-04   -0.30227E-04 10752   0.107E-03 0.219E-06
CGA:  10    -0.929303328756E+02   -0.16007E-04   -0.16015E-04 10752   0.109E-03-0.101E-06
CGA:  11    -0.929303428057E+02   -0.99301E-05   -0.99350E-05 10752   0.512E-04-0.639E-06
CGA:  12    -0.929303444189E+02   -0.16132E-05   -0.16106E-05 10752   0.209E-04-0.500E-07
CGA:  13    -0.929303473734E+02   -0.29545E-05   -0.29507E-05 10752   0.756E-05 0.699E-07
CGA:  14    -0.929303476851E+02   -0.31164E-06   -0.31293E-06 10752   0.650E-05 0.531E-07
   8 F= -.92930348E+02 E0= -.92932179E+02  d E =-.339753E-04  mag=     8.5515
