       N       E                     dE             d eps       ncg     rms          rms(c)
DAV:   1     0.177160224910E+04    0.17716E+04   -0.85318E+04 43008   0.176E+03
DAV:   2     0.555279028040E+01   -0.17660E+04   -0.16777E+04 43008   0.478E+02
DAV:   3    -0.102894438815E+03   -0.10845E+03   -0.10703E+03 50848   0.128E+02
DAV:   4    -0.104531296513E+03   -0.16369E+01   -0.16366E+01 45824   0.156E+01
DAV:   5    -0.104565202420E+03   -0.33906E-01   -0.33906E-01 52992   0.217E+00    0.360E+01
DAV:   6    -0.116440899117E+03   -0.11876E+02   -0.18839E+02 51904   0.689E+01    0.755E+01
DAV:   7    -0.108308252525E+03    0.81326E+01   -0.43172E+02 52480   0.555E+01    0.603E+01
DAV:   8    -0.954100788775E+02    0.12898E+02   -0.11055E+02 51264   0.436E+01    0.279E+01
DAV:   9    -0.105001548253E+03   -0.95915E+01   -0.13639E+02 52160   0.359E+01    0.611E+01
DAV:  10    -0.940693183191E+02    0.10932E+02   -0.13900E+02 51808   0.234E+01    0.277E+01
DAV:  11    -0.921830639179E+02    0.18863E+01   -0.23138E+01 51200   0.156E+01    0.142E+01
DAV:  12    -0.925154997514E+02   -0.33244E+00   -0.36877E+00 52064   0.617E+00    0.960E+00
DAV:  13    -0.928324271090E+02   -0.31693E+00   -0.29075E+00 51456   0.663E+00    0.108E+01
DAV:  14    -0.929082283091E+02   -0.75801E-01   -0.23434E+00 51648   0.577E+00    0.801E+00
DAV:  15    -0.928522972496E+02    0.55931E-01   -0.10193E+00 52128   0.484E+00    0.376E+00
DAV:  16    -0.929222047668E+02   -0.69908E-01   -0.85726E-01 50656   0.414E+00    0.491E+00
DAV:  17    -0.928932968804E+02    0.28908E-01   -0.61186E-01 50272   0.347E+00    0.338E+00
DAV:  18    -0.929262016667E+02   -0.32905E-01   -0.75506E-02 51136   0.131E+00    0.282E+00
DAV:  19    -0.929205430298E+02    0.56586E-02   -0.11067E-01 51200   0.177E+00    0.127E+00
DAV:  20    -0.929272580968E+02   -0.67151E-02   -0.35926E-02 52160   0.663E-01    0.857E-01
DAV:  21    -0.929300837850E+02   -0.28257E-02   -0.11088E-02 53152   0.501E-01    0.489E-01
DAV:  22    -0.929311484613E+02   -0.10647E-02   -0.53281E-03 52032   0.284E-01    0.392E-01
DAV:  23    -0.929312858839E+02   -0.13742E-03   -0.79936E-04 49792   0.157E-01    0.290E-01
DAV:  24    -0.929312978671E+02   -0.11983E-04   -0.12490E-03 52288   0.144E-01    0.980E-02
DAV:  25    -0.929314070848E+02   -0.10922E-03   -0.25564E-04 52576   0.591E-02    0.439E-02
DAV:  26    -0.929314321025E+02   -0.25018E-04   -0.69554E-05 52032   0.300E-02    0.315E-02
DAV:  27    -0.929314387552E+02   -0.66527E-05   -0.14338E-05 50432   0.204E-02    0.133E-02
DAV:  28    -0.929314415974E+02   -0.28422E-05   -0.20379E-06 32864   0.594E-03    0.921E-03
DAV:  29    -0.929314418469E+02   -0.24949E-06   -0.10682E-06 26944   0.441E-03
   1 F= -.92931442E+02 E0= -.92931442E+02  d E =0.000000E+00  mag=     8.4808
