 vasp.6.4.3 19Mar24 (build Mar 26 2024 14:05:37) complex                        
  
 executed on             LinuxIFC date 2024.12.16  21:09:31
 running  128 mpi-ranks, on    1 nodes
 distrk:  each k-point on   32 cores,    4 groups
 distr:  one band on NCORE=   1 cores,   32 groups


--------------------------------------------------------------------------------------------------------


 INCAR:
   ALGO = Normal
   EDIFF = 1e-06
   EDIFFG = -0.01
   ENCUT = 520
   GGA = Pe
   IBRION = -1
   ISIF = 4
   ISMEAR = -5
   ISPIN = 2
   KPAR = 4
   LCHARG = True
   LORBIT = 11
   LREAL = False
   LWAVE = False
   MAGMOM = 1*-2.748 1*2.747 1*2.76 1*-2.771 1*2.735 1*2.868 1*-2.748 1*2.747 1*2.76 1*-0.047 1*0.041 1*0.275
   NELM = 200
   NSW = 0
   PREC = Accurate
   SIGMA = 0.2

 POTCAR:    PAW_PBE Fe_pv 02Aug2007               
 POTCAR:    PAW_PBE Pt 04Feb2005                  
 -----------------------------------------------------------------------------
|                                                                             |
|           W    W    AA    RRRRR   N    N  II  N    N   GGGG   !!!           |
|           W    W   A  A   R    R  NN   N  II  NN   N  G    G  !!!           |
|           W    W  A    A  R    R  N N  N  II  N N  N  G       !!!           |
|           W WW W  AAAAAA  RRRRR   N  N N  II  N  N N  G  GGG   !            |
|           WW  WW  A    A  R   R   N   NN  II  N   NN  G    G                |
|           W    W  A    A  R    R  N    N  II  N    N   GGGG   !!!           |
|                                                                             |
|     For optimal performance we recommend to set                             |
|       NCORE = 2 up to number-of-cores-per-socket                            |
|     NCORE specifies how many cores store one orbital (NPAR=cpu/NCORE).      |
|     This setting can greatly improve the performance of VASP for DFT.       |
|     The default, NCORE=1 might be grossly inefficient on modern             |
|     multi-core architectures or massively parallel machines. Do your        |
|     own testing! More info at https://www.vasp.at/wiki/index.php/NCORE      |
|     Unfortunately you need to use the default for GW and RPA                |
|     calculations (for HF NCORE is supported but not extensively tested      |
|     yet).                                                                   |
|                                                                             |
 -----------------------------------------------------------------------------

 POTCAR:    PAW_PBE Fe_pv 02Aug2007               
   SHA256 =  5d22e414b1f82158bf2c7ecb8b97b28fd0923e48cadc1c3bf74d524558f5dd32 Fe_pv/POTCAR          
   COPYR  = (c) Copyright 02Aug2007 Georg Kresse                                                    
   COPYR  = This file is part of the software VASP. Any use, copying, and all other rights are regul
   COPYR  = If you do not have a valid VASP license, you may not use, copy or distribute this file. 
   VRHFIN =Fe:  3pd7s1                                                                              
   LEXCH  = PE                                                                                      
   EATOM  =  2457.4239 eV,  180.6156 Ry                                                             
                                                                                                    
   TITEL  = PAW_PBE Fe_pv 02Aug2007                                                                 
   LULTRA =        F    use ultrasoft PP ?                                                          
   IUNSCR =        1    unscreen: 0-lin 1-nonlin 2-no                                               
   RPACOR =    1.750    partial core radius                                                         
   POMASS =   55.847; ZVAL   =   14.000    mass and valenz                                          
   RCORE  =    2.200    outmost cutoff radius                                                       
   RWIGS  =    2.200; RWIGS  =    1.164    wigner-seitz radius (au A)                               
   ENMAX  =  293.238; ENMIN  =  219.928 eV                                                          
   ICORE  =        3    local potential                                                             
   LCOR   =        T    correct aug charges                                                         
   LPAW   =        T    paw PP                                                                      
   EAUG   =  578.342                                                                                
   DEXC   =    0.000                                                                                
   RMAX   =    2.249    core radius for proj-oper                                                   
   RAUG   =    1.300    factor for augmentation sphere                                              
   RDEP   =    2.296    radius for radial grids                                                     
   RDEPT  =    1.766    core radius for aug-charge                                                  
                                                                                                    
   Atomic configuration                                                                             
    8 entries                                                                                       
     n  l   j            E        occ.                                                              
     1  0  0.50     -6993.8440   2.0000                                                             
     2  0  0.50      -814.6047   2.0000                                                             
     2  1  1.50      -693.3689   6.0000                                                             
     3  0  0.50       -89.4732   2.0000                                                             
     3  1  1.50       -55.6373   6.0000                                                             
     3  2  2.50        -3.8151   7.0000                                                             
     4  0  0.50        -4.2551   1.0000                                                             
     4  3  2.50        -1.3606   0.0000                                                             
   Description                                                                                      
     l       E           TYP  RCUT    TYP  RCUT                                                     
     1    -55.6372668     23  2.000                                                                 
     1     -5.4423304     23  2.000                                                                 
     2     -3.8151096     23  2.200                                                                 
     2     -5.1756922     23  2.200                                                                 
     0     -4.2550951     23  2.200                                                                 
     0     27.2116520     23  2.200                                                                 
     3     -1.3605826     23  2.200                                                                 
  local pseudopotential read in
  partial core-charges read in
  partial kinetic energy density read in
  atomic valenz-charges read in
  non local Contribution for L=           1  read in
    real space projection operators read in
  non local Contribution for L=           1  read in
    real space projection operators read in
  non local Contribution for L=           2  read in
    real space projection operators read in
  non local Contribution for L=           2  read in
    real space projection operators read in
  non local Contribution for L=           0  read in
    real space projection operators read in
  non local Contribution for L=           0  read in
    real space projection operators read in
    PAW grid and wavefunctions read in
 
   number of l-projection  operators is LMAX  =           6
   number of lm-projection operators is LMMAX =          18
 
 POTCAR:    PAW_PBE Pt 04Feb2005                  
   SHA256 =  3ed90460adef76debcff1cfb73ee1349b515b1a3db03439735b44de3a8db7dc8 Pt/POTCAR             
   COPYR  = (c) Copyright 04Feb2005 Georg Kresse                                                    
   COPYR  = This file is part of the software VASP. Any use, copying, and all other rights are regul
   COPYR  = If you do not have a valid VASP license, you may not use, copy or distribute this file. 
   VRHFIN =Pt: s1d9                                                                                 
   LEXCH  = PE                                                                                      
   EATOM  =   729.1176 eV,   53.5886 Ry                                                             
                                                                                                    
   TITEL  = PAW_PBE Pt 04Feb2005                                                                    
   LULTRA =        F    use ultrasoft PP ?                                                          
   IUNSCR =        1    unscreen: 0-lin 1-nonlin 2-no                                               
   RPACOR =    2.330    partial core radius                                                         
   POMASS =  195.080; ZVAL   =   10.000    mass and valenz                                          
   RCORE  =    2.600    outmost cutoff radius                                                       
   RWIGS  =    2.750; RWIGS  =    1.455    wigner-seitz radius (au A)                               
   ENMAX  =  230.283; ENMIN  =  172.712 eV                                                          
   ICORE  =        3    local potential                                                             
   LCOR   =        T    correct aug charges                                                         
   LPAW   =        T    paw PP                                                                      
   EAUG   =  358.966                                                                                
   DEXC   =    0.000                                                                                
   RMAX   =    2.658    core radius for proj-oper                                                   
   RAUG   =    1.300    factor for augmentation sphere                                              
   RDEP   =    2.761    radius for radial grids                                                     
   RDEPT  =    2.203    core radius for aug-charge                                                  
                                                                                                    
   Atomic configuration                                                                             
   16 entries                                                                                       
     n  l   j            E        occ.                                                              
     1  0  0.50    -78401.1885   2.0000                                                             
     2  0  0.50    -13770.7750   2.0000                                                             
     2  1  1.50    -11931.0468   6.0000                                                             
     3  0  0.50     -3234.7234   2.0000                                                             
     3  1  1.50     -2699.2216   6.0000                                                             
     3  2  2.50     -2119.5714  10.0000                                                             
     4  0  0.50      -695.1528   2.0000                                                             
     4  1  1.50      -519.6034   6.0000                                                             
     4  2  2.50      -306.6786  10.0000                                                             
     4  3  3.50       -70.1041  14.0000                                                             
     5  0  0.50      -101.7747   2.0000                                                             
     5  1  1.50       -55.9873   6.0000                                                             
     5  2  2.50        -6.1423   9.0000                                                             
     6  0  0.50        -5.6573   1.0000                                                             
     6  1  1.50        -6.8029   0.0000                                                             
     5  3  2.50        -1.3606   0.0000                                                             
   Description                                                                                      
     l       E           TYP  RCUT    TYP  RCUT                                                     
     2     -6.1423404     23  2.500                                                                 
     2     -7.5029230     23  2.500                                                                 
     0     -5.6573207     23  2.500                                                                 
     0      0.7416693     23  2.500                                                                 
     1     -2.7211652     23  2.600                                                                 
     1     20.4087390     23  2.600                                                                 
     3     -1.3605826     23  2.500                                                                 
  local pseudopotential read in
  partial core-charges read in
  partial kinetic energy density read in
  atomic valenz-charges read in
  non local Contribution for L=           2  read in
    real space projection operators read in
  non local Contribution for L=           2  read in
    real space projection operators read in
  non local Contribution for L=           0  read in
    real space projection operators read in
  non local Contribution for L=           0  read in
    real space projection operators read in
  non local Contribution for L=           1  read in
    real space projection operators read in
  non local Contribution for L=           1  read in
    real space projection operators read in
    PAW grid and wavefunctions read in
 
   number of l-projection  operators is LMAX  =           6
   number of lm-projection operators is LMMAX =          18
 
  PAW_PBE Fe_pv 02Aug2007               :
 energy of atom  1       EATOM=-2457.4239
 kinetic energy error for atom=    0.0062 (will be added to EATOM!!)
  PAW_PBE Pt 04Feb2005                  :
 energy of atom  2       EATOM= -729.1176
 kinetic energy error for atom=    0.0032 (will be added to EATOM!!)
 
 
 POSCAR: Fe9 Pt3
  positions in direct lattice
  velocities in cartesian coordinates


 exchange-correlation table for PE
   RHO(1)=    0.500       N(1)  =     2000
   RHO(2)=  100.500       N(2)  =     4000
 


--------------------------------------------------------------------------------------------------------


 ion  position               nearest neighbor table
   1  0.000  0.500  0.167-   4 2.64   4 2.64  11 2.66  11 2.66   7 2.68   7 2.68   7 2.68   7 2.68
                            10 2.73  10 2.73   5 2.78   5 2.78
   2  0.000  0.500  0.499-   5 2.62   5 2.62   6 2.68   6 2.68   8 2.68   8 2.68   8 2.68   8 2.68
                            12 2.70  12 2.70  11 2.74  11 2.74
   3  0.000  0.500  0.832-   9 2.68   9 2.68   9 2.68   9 2.68  10 2.69  10 2.69  12 2.70  12 2.70
                             6 2.72   6 2.72   4 2.77   4 2.77
   4  0.500  0.500  0.007-   1 2.64   7 2.64   7 2.64   1 2.64  10 2.68  10 2.68  10 2.68  10 2.68
                             9 2.77   3 2.77   9 2.77   3 2.77
   5  0.500  0.500  0.342-   2 2.62   8 2.62   8 2.62   2 2.62  11 2.68  11 2.68  11 2.68  11 2.68
                             1 2.78   7 2.78   1 2.78   7 2.78
   6  0.500  0.500  0.663-   2 2.68   8 2.68   8 2.68   2 2.68  12 2.68  12 2.68  12 2.68  12 2.68
                             9 2.72   3 2.72   9 2.72   3 2.72
   7  0.500  0.000  0.167-   4 2.64   4 2.64  11 2.66  11 2.66   1 2.68   1 2.68   1 2.68   1 2.68
                            10 2.73  10 2.73   5 2.78   5 2.78
   8  0.500  0.000  0.499-   5 2.62   5 2.62   6 2.68   6 2.68   2 2.68   2 2.68   2 2.68   2 2.68
                            12 2.70  12 2.70  11 2.74  11 2.74
   9  0.500  0.000  0.832-   3 2.68   3 2.68   3 2.68   3 2.68  10 2.69  10 2.69  12 2.70  12 2.70
                             6 2.72   6 2.72   4 2.77   4 2.77
  10  0.000  0.000  0.997-   4 2.68   4 2.68   4 2.68   4 2.68   3 2.69   9 2.69   9 2.69   3 2.69
                             1 2.73   7 2.73   7 2.73   1 2.73
  11  0.000  0.000  0.329-   1 2.66   7 2.66   1 2.66   7 2.66   5 2.68   5 2.68   5 2.68   5 2.68
                             2 2.74   2 2.74   8 2.74   8 2.74
  12  0.000  0.000  0.666-   6 2.68   6 2.68   6 2.68   6 2.68   2 2.70   8 2.70   8 2.70   2 2.70
                             3 2.70   3 2.70   9 2.70   9 2.70
 
  LATTYP: Found a simple tetragonal cell.
 ALAT       =     3.7901499150
 C/A-ratio  =     3.0488701128
  
  Lattice vectors:
  
 A1 = (   3.7901499150,   0.0000000000,   0.0000000000)
 A2 = (   0.0000000000,   3.7901499150,   0.0000000000)
 A3 = (   0.0000000000,   0.0000000000,  11.5556747989)


Analysis of symmetry for initial positions (statically):
=====================================================================
 Subroutine PRICEL returns:
 Original cell was already a primitive cell.
 

 Routine SETGRP: Setting up the symmetry group for a 
 simple tetragonal supercell.


 Subroutine GETGRP returns: Found  8 space group operations
 (whereof  8 operations were pure point group operations)
 out of a pool of 16 trial point group operations.


The static configuration has the point symmetry C_4v.


Analysis of symmetry for dynamics (positions and initial velocities):
=====================================================================
 Subroutine PRICEL returns:
 Original cell was already a primitive cell.
 

 Routine SETGRP: Setting up the symmetry group for a 
 simple tetragonal supercell.


 Subroutine GETGRP returns: Found  8 space group operations
 (whereof  8 operations were pure point group operations)
 out of a pool of 16 trial point group operations.


The dynamic configuration has the point symmetry C_4v.


Analysis of structural, dynamic, and magnetic symmetry:
=====================================================================
 Subroutine PRICEL returns:
 Original cell was already a primitive cell.
 

 Routine SETGRP: Setting up the symmetry group for a 
 simple tetragonal supercell.


 Subroutine GETGRP returns: Found  8 space group operations
 (whereof  8 operations were pure point group operations)
 out of a pool of 16 trial point group operations.


The overall configuration has the point symmetry C_4v.


 Subroutine INISYM returns: Found  8 space group operations
 (whereof  8 operations are pure point group operations),
 and found     1 'primitive' translations


----------------------------------------------------------------------------------------

                                     Primitive cell                                     

  volume of cell :     166.0000

  direct lattice vectors                    reciprocal lattice vectors
     3.790149915  0.000000000  0.000000000     0.263841806  0.000000000  0.000000000
     0.000000000  3.790149915  0.000000000     0.000000000  0.263841806  0.000000000
     0.000000000  0.000000000 11.555674799     0.000000000  0.000000000  0.086537569

  length of vectors
     3.790149915  3.790149915 11.555674799     0.263841806  0.263841806  0.086537569

  position of ions in fractional coordinates (direct lattice)
     0.000000000  0.500000000  0.166643487
     0.000000000  0.500000000  0.499393668
     0.000000000  0.500000000  0.832062322
     0.500000000  0.500000000  0.007146473
     0.500000000  0.500000000  0.342454666
     0.500000000  0.500000000  0.663069850
     0.500000000  0.000000000  0.166643487
     0.500000000  0.000000000  0.499393668
     0.500000000  0.000000000  0.832062322
     0.000000000  0.000000000  0.997036110
     0.000000000  0.000000000  0.328505938
     0.000000000  0.000000000  0.665588008

  ion indices of the primitive-cell ions
   primitive index   ion index
                 1           1
                 2           2
                 3           3
                 4           4
                 5           5
                 6           6
                 7           7
                 8           8
                 9           9
                10          10
                11          11
                12          12

----------------------------------------------------------------------------------------

 
 
 KPOINTS: pymatgen with grid density = 8800 / numb

Automatic generation of k-mesh.
 Grid dimensions read from file:
 generate k-points for:   13   13    4

 Generating k-lattice:

  Cartesian coordinates                     Fractional coordinates (reciprocal lattice)
     0.020295524  0.000000000  0.000000000     0.076923077  0.000000000  0.000000000
     0.000000000  0.020295524  0.000000000     0.000000000  0.076923077  0.000000000
     0.000000000  0.000000000  0.021634392     0.000000000  0.000000000  0.250000000

  Length of vectors
     0.020295524  0.020295524  0.021634392

  Shift w.r.t. Gamma in fractional coordinates (k-lattice)
     0.000000000  0.000000000  0.000000000

 TETIRR: Found   1010 inequivalent tetrahedra from     4056
 
 Subroutine IBZKPT returns following result:
 ===========================================
 
 Found     84 irreducible k-points:
 
 Following reciprocal coordinates:
            Coordinates               Weight
  0.000000  0.000000  0.000000      1.000000
  0.076923  0.000000  0.000000      4.000000
  0.153846  0.000000  0.000000      4.000000
  0.230769  0.000000  0.000000      4.000000
  0.307692  0.000000  0.000000      4.000000
  0.384615  0.000000  0.000000      4.000000
  0.461538  0.000000  0.000000      4.000000
  0.076923  0.076923  0.000000      4.000000
  0.153846  0.076923  0.000000      8.000000
  0.230769  0.076923  0.000000      8.000000
  0.307692  0.076923  0.000000      8.000000
  0.384615  0.076923  0.000000      8.000000
  0.461538  0.076923  0.000000      8.000000
  0.153846  0.153846  0.000000      4.000000
  0.230769  0.153846  0.000000      8.000000
  0.307692  0.153846  0.000000      8.000000
  0.384615  0.153846  0.000000      8.000000
  0.461538  0.153846  0.000000      8.000000
  0.230769  0.230769  0.000000      4.000000
  0.307692  0.230769  0.000000      8.000000
  0.384615  0.230769  0.000000      8.000000
  0.461538  0.230769  0.000000      8.000000
  0.307692  0.307692  0.000000      4.000000
  0.384615  0.307692  0.000000      8.000000
  0.461538  0.307692  0.000000      8.000000
  0.384615  0.384615  0.000000      4.000000
  0.461538  0.384615  0.000000      8.000000
  0.461538  0.461538  0.000000      4.000000
  0.000000  0.000000  0.250000      2.000000
  0.076923  0.000000  0.250000      8.000000
  0.153846  0.000000  0.250000      8.000000
  0.230769  0.000000  0.250000      8.000000
  0.307692  0.000000  0.250000      8.000000
  0.384615  0.000000  0.250000      8.000000
  0.461538  0.000000  0.250000      8.000000
  0.076923  0.076923  0.250000      8.000000
  0.153846  0.076923  0.250000     16.000000
  0.230769  0.076923  0.250000     16.000000
  0.307692  0.076923  0.250000     16.000000
  0.384615  0.076923  0.250000     16.000000
  0.461538  0.076923  0.250000     16.000000
  0.153846  0.153846  0.250000      8.000000
  0.230769  0.153846  0.250000     16.000000
  0.307692  0.153846  0.250000     16.000000
  0.384615  0.153846  0.250000     16.000000
  0.461538  0.153846  0.250000     16.000000
  0.230769  0.230769  0.250000      8.000000
  0.307692  0.230769  0.250000     16.000000
  0.384615  0.230769  0.250000     16.000000
  0.461538  0.230769  0.250000     16.000000
  0.307692  0.307692  0.250000      8.000000
  0.384615  0.307692  0.250000     16.000000
  0.461538  0.307692  0.250000     16.000000
  0.384615  0.384615  0.250000      8.000000
  0.461538  0.384615  0.250000     16.000000
  0.461538  0.461538  0.250000      8.000000
  0.000000  0.000000  0.500000      1.000000
  0.076923  0.000000  0.500000      4.000000
  0.153846  0.000000  0.500000      4.000000
  0.230769  0.000000  0.500000      4.000000
  0.307692  0.000000  0.500000      4.000000
  0.384615  0.000000  0.500000      4.000000
  0.461538  0.000000  0.500000      4.000000
  0.076923  0.076923  0.500000      4.000000
  0.153846  0.076923  0.500000      8.000000
  0.230769  0.076923  0.500000      8.000000
  0.307692  0.076923  0.500000      8.000000
  0.384615  0.076923  0.500000      8.000000
  0.461538  0.076923  0.500000      8.000000
  0.153846  0.153846  0.500000      4.000000
  0.230769  0.153846  0.500000      8.000000
  0.307692  0.153846  0.500000      8.000000
  0.384615  0.153846  0.500000      8.000000
  0.461538  0.153846  0.500000      8.000000
  0.230769  0.230769  0.500000      4.000000
  0.307692  0.230769  0.500000      8.000000
  0.384615  0.230769  0.500000      8.000000
  0.461538  0.230769  0.500000      8.000000
  0.307692  0.307692  0.500000      4.000000
  0.384615  0.307692  0.500000      8.000000
  0.461538  0.307692  0.500000      8.000000
  0.384615  0.384615  0.500000      4.000000
  0.461538  0.384615  0.500000      8.000000
  0.461538  0.461538  0.500000      4.000000
 
 Following cartesian coordinates:
            Coordinates               Weight
  0.000000  0.000000  0.000000      1.000000
  0.020296  0.000000  0.000000      4.000000
  0.040591  0.000000  0.000000      4.000000
  0.060887  0.000000  0.000000      4.000000
  0.081182  0.000000  0.000000      4.000000
  0.101478  0.000000  0.000000      4.000000
  0.121773  0.000000  0.000000      4.000000
  0.020296  0.020296  0.000000      4.000000
  0.040591  0.020296  0.000000      8.000000
  0.060887  0.020296  0.000000      8.000000
  0.081182  0.020296  0.000000      8.000000
  0.101478  0.020296  0.000000      8.000000
  0.121773  0.020296  0.000000      8.000000
  0.040591  0.040591  0.000000      4.000000
  0.060887  0.040591  0.000000      8.000000
  0.081182  0.040591  0.000000      8.000000
  0.101478  0.040591  0.000000      8.000000
  0.121773  0.040591  0.000000      8.000000
  0.060887  0.060887  0.000000      4.000000
  0.081182  0.060887  0.000000      8.000000
  0.101478  0.060887  0.000000      8.000000
  0.121773  0.060887  0.000000      8.000000
  0.081182  0.081182  0.000000      4.000000
  0.101478  0.081182  0.000000      8.000000
  0.121773  0.081182  0.000000      8.000000
  0.101478  0.101478  0.000000      4.000000
  0.121773  0.101478  0.000000      8.000000
  0.121773  0.121773  0.000000      4.000000
  0.000000  0.000000  0.021634      2.000000
  0.020296  0.000000  0.021634      8.000000
  0.040591  0.000000  0.021634      8.000000
  0.060887  0.000000  0.021634      8.000000
  0.081182  0.000000  0.021634      8.000000
  0.101478  0.000000  0.021634      8.000000
  0.121773  0.000000  0.021634      8.000000
  0.020296  0.020296  0.021634      8.000000
  0.040591  0.020296  0.021634     16.000000
  0.060887  0.020296  0.021634     16.000000
  0.081182  0.020296  0.021634     16.000000
  0.101478  0.020296  0.021634     16.000000
  0.121773  0.020296  0.021634     16.000000
  0.040591  0.040591  0.021634      8.000000
  0.060887  0.040591  0.021634     16.000000
  0.081182  0.040591  0.021634     16.000000
  0.101478  0.040591  0.021634     16.000000
  0.121773  0.040591  0.021634     16.000000
  0.060887  0.060887  0.021634      8.000000
  0.081182  0.060887  0.021634     16.000000
  0.101478  0.060887  0.021634     16.000000
  0.121773  0.060887  0.021634     16.000000
  0.081182  0.081182  0.021634      8.000000
  0.101478  0.081182  0.021634     16.000000
  0.121773  0.081182  0.021634     16.000000
  0.101478  0.101478  0.021634      8.000000
  0.121773  0.101478  0.021634     16.000000
  0.121773  0.121773  0.021634      8.000000
  0.000000  0.000000  0.043269      1.000000
  0.020296  0.000000  0.043269      4.000000
  0.040591  0.000000  0.043269      4.000000
  0.060887  0.000000  0.043269      4.000000
  0.081182  0.000000  0.043269      4.000000
  0.101478  0.000000  0.043269      4.000000
  0.121773  0.000000  0.043269      4.000000
  0.020296  0.020296  0.043269      4.000000
  0.040591  0.020296  0.043269      8.000000
  0.060887  0.020296  0.043269      8.000000
  0.081182  0.020296  0.043269      8.000000
  0.101478  0.020296  0.043269      8.000000
  0.121773  0.020296  0.043269      8.000000
  0.040591  0.040591  0.043269      4.000000
  0.060887  0.040591  0.043269      8.000000
  0.081182  0.040591  0.043269      8.000000
  0.101478  0.040591  0.043269      8.000000
  0.121773  0.040591  0.043269      8.000000
  0.060887  0.060887  0.043269      4.000000
  0.081182  0.060887  0.043269      8.000000
  0.101478  0.060887  0.043269      8.000000
  0.121773  0.060887  0.043269      8.000000
  0.081182  0.081182  0.043269      4.000000
  0.101478  0.081182  0.043269      8.000000
  0.121773  0.081182  0.043269      8.000000
  0.101478  0.101478  0.043269      4.000000
  0.121773  0.101478  0.043269      8.000000
  0.121773  0.121773  0.043269      4.000000
 


--------------------------------------------------------------------------------------------------------




 Dimension of arrays:
   k-points           NKPTS =     84   k-points in BZ     NKDIM =     84   number of bands    NBANDS=    128
   number of dos      NEDOS =    301   number of ions     NIONS =     12
   non local maximal  LDIM  =      6   non local SUM 2l+1 LMDIM =     18
   total plane-waves  NPLWV =  70560
   max r-space proj   IRMAX =      1   max aug-charges    IRDMAX=  25941
   dimension x,y,z NGX =    28 NGY =   28 NGZ =   90
   dimension x,y,z NGXF=    56 NGYF=   56 NGZF=  180
   support grid    NGXF=    56 NGYF=   56 NGZF=  180
   ions per type =               9   3
   NGX,Y,Z   is equivalent  to a cutoff of  12.28, 12.28, 12.95 a.u.
   NGXF,Y,Z  is equivalent  to a cutoff of  24.56, 24.56, 25.90 a.u.

 SYSTEM =  unknown system                          
 POSCAR =  Fe9 Pt3                                 

 Startparameter for this run:
   NWRITE =      2    write-flag & timer
   PREC   = accura    normal or accurate (medium, high low for compatibility)
   ISTART =      0    job   : 0-new  1-cont  2-samecut
   ICHARG =      2    charge: 1-file 2-atom 10-const
   ISPIN  =      2    spin polarized calculation?
   LNONCOLLINEAR =      F non collinear calculations
   LSORBIT =      F    spin-orbit coupling
   INIWAV =      1    electr: 0-lowe 1-rand  2-diag
   LASPH  =      F    aspherical Exc in radial PAW
 Electronic Relaxation 1
   ENCUT  =  520.0 eV  38.22 Ry    6.18 a.u.   7.05  7.05 21.49*2*pi/ulx,y,z
   ENINI  =  520.0     initial cutoff
   ENAUG  =  578.3 eV  augmentation charge cutoff
   NELM   =    200;   NELMIN=  2; NELMDL=  0     # of ELM steps 
   EDIFF  = 0.1E-05   stopping-criterion for ELM
   LREAL  =      F    real-space projection
   NLSPLINE    = F    spline interpolate recip. space projectors
   LCOMPAT=      F    compatible to vasp.4.4
   GGA_COMPAT  = T    GGA compatible to vasp.4.4-vasp.4.6
   LMAXPAW     = -100 max onsite density
   LMAXMIX     =    2 max onsite mixed and CHGCAR
   VOSKOWN=      0    Vosko Wilk Nusair interpolation
   ROPT   =    0.00000   0.00000
 Ionic relaxation
   EDIFFG = -.1E-01   stopping-criterion for IOM
   NSW    =      0    number of steps for IOM
   NBLOCK =      1;   KBLOCK =      1    inner block; outer block 
   IBRION =     -1    ionic relax: 0-MD 1-quasi-New 2-CG
   NFREE  =      0    steps in history (QN), initial steepest desc. (CG)
   ISIF   =      4    stress and relaxation
   IWAVPR =     10    prediction:  0-non 1-charg 2-wave 3-comb
   ISYM   =      2    0-nonsym 1-usesym 2-fastsym
   LCORR  =      T    Harris-Foulkes like correction to forces

   POTIM  = 0.5000    time-step for ionic-motion
   TEIN   =    0.0    initial temperature
   TEBEG  =    0.0;   TEEND  =   0.0 temperature during run
   SMASS  =  -3.00    Nose mass-parameter (am)
   estimated Nose-frequenzy (Omega)   =  0.10E-29 period in steps = 0.13E+47 mass=  -0.328E-27a.u.
   SCALEE = 1.0000    scale energy and forces
   NPACO  =    256;   APACO  = 10.0  distance and # of slots for P.C.
   PSTRESS=    0.0 pullay stress

  Mass of Ions in am
   POMASS =  55.85195.08
  Ionic Valenz
   ZVAL   =  14.00 10.00
  Atomic Wigner-Seitz radii
   RWIGS  =  -1.00 -1.00
  virtual crystal weights 
   VCA    =   1.00  1.00
   NELECT =     156.0000    total number of electrons
   NUPDOWN=      -1.0000    fix difference up-down

 DOS related values:
   EMIN   =  10.00;   EMAX   =-10.00  energy-range for DOS
   EFERMI =   0.00;   METHOD = LEGACY      
   ISMEAR =    -5;   SIGMA  =   0.20  broadening in eV -4-tet -1-fermi 0-gaus

 Electronic relaxation 2 (details)
   IALGO  =     38    algorithm
   LDIAG  =      T    sub-space diagonalisation (order eigenvalues)
   LSUBROT=      F    optimize rotation matrix (better conditioning)
   TURBO    =      0    0=normal 1=particle mesh
   IRESTART =      0    0=no restart 2=restart with 2 vectors
   NREBOOT  =      0    no. of reboots
   NMIN     =      0    reboot dimension
   EREF     =   0.00    reference energy to select bands
   IMIX   =      4    mixing-type and parameters
     AMIX     =   0.40;   BMIX     =  1.00
     AMIX_MAG =   1.60;   BMIX_MAG =  1.00
     AMIN     =   0.10
     WC   =   100.;   INIMIX=   1;  MIXPRE=   1;  MAXMIX= -45

 Intra band minimization:
   WEIMIN = 0.0000     energy-eigenvalue tresh-hold
   EBREAK =  0.20E-08  absolut break condition
   DEPER  =   0.30     relativ break condition  

   TIME   =   0.40     timestep for ELM

  volume/ion in A,a.u.               =      13.83        93.35
  Fermi-wavevector in a.u.,A,eV,Ry     =   1.603542  3.030255 34.985298  2.571347
  Thomas-Fermi vector in A             =   2.700188
 
 Write flags
   LWAVE        =      F    write WAVECAR
   LDOWNSAMPLE  =      F    k-point downsampling of WAVECAR
   LCHARG       =      T    write CHGCAR
   LVTOT        =      F    write LOCPOT, total local potential
   LVHAR        =      F    write LOCPOT, Hartree potential only
   WRT_POTENTIAL= false  ! write potential to hdf5 file
   LELF         =      F    write electronic localiz. function (ELF)
   LORBIT       =     11    0 simple, 1 ext, 2 COOP (PROOUT), +10 PAW based schemes


 Dipole corrections
   LMONO      =      F    monopole corrections only (constant potential shift)
   LDIPOL     =      F    correct potential (dipole corrections)
   IDIPOL     =      0    1-x, 2-y, 3-z, 4-all directions 
   EPSILON    =  1.0000000 bulk dielectric constant
   LVACPOTAV  =      F  vacuum potentials using an averaging scheme for the charge density
   VACPOTFLAT =  0.1000000 required flatness to determine vacuum potential
 Exchange correlation treatment:
   GGA     = PE    functional components
   XC_C    = 1    coefficients multiplying the functional components
   LIBXC   =     F    Libxc                    
   VOSKOWN =     0    Vosko Wilk Nusair interpolation
   LHFCALC =     F    Hartree Fock is set to
   LHFONE  =     F    Hartree Fock one center treatment
   AEXX    =    0.0000 exact exchange contribution

 Parameters of functionals:
   PE:
     No parameter
 
 Van der Waals corrections
   IVDW    =     0    specifies the selected vdW correction

 Linear response parameters
   LEPSILON=     F    determine dielectric tensor
   LRPA    =     F    only Hartree local field effects (RPA)
   LNABLA  =     F    use nabla operator in PAW spheres
   LVEL    =     F    velocity operator in full k-point grid
   CSHIFT  =0.1000    complex shift for real part using Kramers Kronig
   OMEGAMAX=  -1.0    maximum frequency
   DEG_THRESHOLD= 0.2000000E-02 threshold for treating states as degnerate
   RTIME   =   -0.100 relaxation time in fs
  (WPLASMAI=    0.000 imaginary part of plasma frequency in eV, 0.658/RTIME)
   DFIELD  = 0.0000000 0.0000000 0.0000000 field for delta impulse in time
 
  Optional k-point grid parameters
   LKPOINTS_OPT  =     F    use optional k-point grid
   KPOINTS_OPT_MODE=     1    mode for optional k-point grid
 
 Orbital magnetization related:
   ORBITALMAG=     F  switch on orbital magnetization
   LCHIMAG   =     F  perturbation theory with respect to B field
   DQ        =  0.001000  dq finite difference perturbation B field
   LLRAUG    =     F  two centre corrections for induced B field
   LBONE     =     F  B-component reconstruction in AE one-centre
   LVGVCALC  =     T  calculate vGv susceptibility
   LVGVAPPL  =     F  apply vGv susceptibility instead of pGv for G=0

 Random number generation:
   RANDOM_GENERATOR = DEFAULT
   PCG_SEED         = not used


--------------------------------------------------------------------------------------------------------


 Static calculation
 charge density and potential will be updated during run
 spin polarized calculation
 Variant of blocked Davidson
 Davidson routine will perform the subspace rotation
 perform sub-space diagonalisation
    after iterative eigenvector-optimisation
 modified Broyden-mixing scheme, WC =      100.0
 initial mixing is a Kerker type mixing with AMIX =  0.4000 and BMIX =      1.0000
 Hartree-type preconditioning will be used
 using additional bands           50
 reciprocal scheme for non local part
 use partial core corrections
 calculate Harris-corrections to forces 
   (improved forces if not selfconsistent)
 use gradient corrections 
 use of overlap-Matrix (Vanderbilt PP)
 Fermi weights with tetrahedron method with Bloechl corrections


--------------------------------------------------------------------------------------------------------


  energy-cutoff  :      520.00
  volume of cell :      166.00
      direct lattice vectors                 reciprocal lattice vectors
     3.790149915  0.000000000  0.000000000     0.263841806  0.000000000  0.000000000
     0.000000000  3.790149915  0.000000000     0.000000000  0.263841806  0.000000000
     0.000000000  0.000000000 11.555674799     0.000000000  0.000000000  0.086537569

  length of vectors
     3.790149915  3.790149915 11.555674799     0.263841806  0.263841806  0.086537569


 
 k-points in units of 2pi/SCALE and weight: pymatgen with grid density = 8800 / numb
   0.00000000  0.00000000  0.00000000       0.001
   0.02029552  0.00000000  0.00000000       0.006
   0.04059105  0.00000000  0.00000000       0.006
   0.06088657  0.00000000  0.00000000       0.006
   0.08118209  0.00000000  0.00000000       0.006
   0.10147762  0.00000000  0.00000000       0.006
   0.12177314  0.00000000  0.00000000       0.006
   0.02029552  0.02029552  0.00000000       0.006
   0.04059105  0.02029552  0.00000000       0.012
   0.06088657  0.02029552  0.00000000       0.012
   0.08118209  0.02029552  0.00000000       0.012
   0.10147762  0.02029552  0.00000000       0.012
   0.12177314  0.02029552  0.00000000       0.012
   0.04059105  0.04059105  0.00000000       0.006
   0.06088657  0.04059105  0.00000000       0.012
   0.08118209  0.04059105  0.00000000       0.012
   0.10147762  0.04059105  0.00000000       0.012
   0.12177314  0.04059105  0.00000000       0.012
   0.06088657  0.06088657  0.00000000       0.006
   0.08118209  0.06088657  0.00000000       0.012
   0.10147762  0.06088657  0.00000000       0.012
   0.12177314  0.06088657  0.00000000       0.012
   0.08118209  0.08118209  0.00000000       0.006
   0.10147762  0.08118209  0.00000000       0.012
   0.12177314  0.08118209  0.00000000       0.012
   0.10147762  0.10147762  0.00000000       0.006
   0.12177314  0.10147762  0.00000000       0.012
   0.12177314  0.12177314  0.00000000       0.006
   0.00000000  0.00000000  0.02163439       0.003
   0.02029552  0.00000000  0.02163439       0.012
   0.04059105  0.00000000  0.02163439       0.012
   0.06088657  0.00000000  0.02163439       0.012
   0.08118209  0.00000000  0.02163439       0.012
   0.10147762  0.00000000  0.02163439       0.012
   0.12177314  0.00000000  0.02163439       0.012
   0.02029552  0.02029552  0.02163439       0.012
   0.04059105  0.02029552  0.02163439       0.024
   0.06088657  0.02029552  0.02163439       0.024
   0.08118209  0.02029552  0.02163439       0.024
   0.10147762  0.02029552  0.02163439       0.024
   0.12177314  0.02029552  0.02163439       0.024
   0.04059105  0.04059105  0.02163439       0.012
   0.06088657  0.04059105  0.02163439       0.024
   0.08118209  0.04059105  0.02163439       0.024
   0.10147762  0.04059105  0.02163439       0.024
   0.12177314  0.04059105  0.02163439       0.024
   0.06088657  0.06088657  0.02163439       0.012
   0.08118209  0.06088657  0.02163439       0.024
   0.10147762  0.06088657  0.02163439       0.024
   0.12177314  0.06088657  0.02163439       0.024
   0.08118209  0.08118209  0.02163439       0.012
   0.10147762  0.08118209  0.02163439       0.024
   0.12177314  0.08118209  0.02163439       0.024
   0.10147762  0.10147762  0.02163439       0.012
   0.12177314  0.10147762  0.02163439       0.024
   0.12177314  0.12177314  0.02163439       0.012
   0.00000000  0.00000000  0.04326878       0.001
   0.02029552  0.00000000  0.04326878       0.006
   0.04059105  0.00000000  0.04326878       0.006
   0.06088657  0.00000000  0.04326878       0.006
   0.08118209  0.00000000  0.04326878       0.006
   0.10147762  0.00000000  0.04326878       0.006
   0.12177314  0.00000000  0.04326878       0.006
   0.02029552  0.02029552  0.04326878       0.006
   0.04059105  0.02029552  0.04326878       0.012
   0.06088657  0.02029552  0.04326878       0.012
   0.08118209  0.02029552  0.04326878       0.012
   0.10147762  0.02029552  0.04326878       0.012
   0.12177314  0.02029552  0.04326878       0.012
   0.04059105  0.04059105  0.04326878       0.006
   0.06088657  0.04059105  0.04326878       0.012
   0.08118209  0.04059105  0.04326878       0.012
   0.10147762  0.04059105  0.04326878       0.012
   0.12177314  0.04059105  0.04326878       0.012
   0.06088657  0.06088657  0.04326878       0.006
   0.08118209  0.06088657  0.04326878       0.012
   0.10147762  0.06088657  0.04326878       0.012
   0.12177314  0.06088657  0.04326878       0.012
   0.08118209  0.08118209  0.04326878       0.006
   0.10147762  0.08118209  0.04326878       0.012
   0.12177314  0.08118209  0.04326878       0.012
   0.10147762  0.10147762  0.04326878       0.006
   0.12177314  0.10147762  0.04326878       0.012
   0.12177314  0.12177314  0.04326878       0.006
 
 k-points in reciprocal lattice and weights: pymatgen with grid density = 8800 / numb
   0.00000000  0.00000000  0.00000000       0.001
   0.07692308  0.00000000  0.00000000       0.006
   0.15384615  0.00000000  0.00000000       0.006
   0.23076923  0.00000000  0.00000000       0.006
   0.30769231  0.00000000  0.00000000       0.006
   0.38461538  0.00000000  0.00000000       0.006
   0.46153846  0.00000000  0.00000000       0.006
   0.07692308  0.07692308  0.00000000       0.006
   0.15384615  0.07692308  0.00000000       0.012
   0.23076923  0.07692308  0.00000000       0.012
   0.30769231  0.07692308  0.00000000       0.012
   0.38461538  0.07692308  0.00000000       0.012
   0.46153846  0.07692308  0.00000000       0.012
   0.15384615  0.15384615  0.00000000       0.006
   0.23076923  0.15384615  0.00000000       0.012
   0.30769231  0.15384615  0.00000000       0.012
   0.38461538  0.15384615  0.00000000       0.012
   0.46153846  0.15384615  0.00000000       0.012
   0.23076923  0.23076923  0.00000000       0.006
   0.30769231  0.23076923  0.00000000       0.012
   0.38461538  0.23076923  0.00000000       0.012
   0.46153846  0.23076923  0.00000000       0.012
   0.30769231  0.30769231  0.00000000       0.006
   0.38461538  0.30769231  0.00000000       0.012
   0.46153846  0.30769231  0.00000000       0.012
   0.38461538  0.38461538  0.00000000       0.006
   0.46153846  0.38461538  0.00000000       0.012
   0.46153846  0.46153846  0.00000000       0.006
   0.00000000  0.00000000  0.25000000       0.003
   0.07692308  0.00000000  0.25000000       0.012
   0.15384615  0.00000000  0.25000000       0.012
   0.23076923  0.00000000  0.25000000       0.012
   0.30769231  0.00000000  0.25000000       0.012
   0.38461538  0.00000000  0.25000000       0.012
   0.46153846  0.00000000  0.25000000       0.012
   0.07692308  0.07692308  0.25000000       0.012
   0.15384615  0.07692308  0.25000000       0.024
   0.23076923  0.07692308  0.25000000       0.024
   0.30769231  0.07692308  0.25000000       0.024
   0.38461538  0.07692308  0.25000000       0.024
   0.46153846  0.07692308  0.25000000       0.024
   0.15384615  0.15384615  0.25000000       0.012
   0.23076923  0.15384615  0.25000000       0.024
   0.30769231  0.15384615  0.25000000       0.024
   0.38461538  0.15384615  0.25000000       0.024
   0.46153846  0.15384615  0.25000000       0.024
   0.23076923  0.23076923  0.25000000       0.012
   0.30769231  0.23076923  0.25000000       0.024
   0.38461538  0.23076923  0.25000000       0.024
   0.46153846  0.23076923  0.25000000       0.024
   0.30769231  0.30769231  0.25000000       0.012
   0.38461538  0.30769231  0.25000000       0.024
   0.46153846  0.30769231  0.25000000       0.024
   0.38461538  0.38461538  0.25000000       0.012
   0.46153846  0.38461538  0.25000000       0.024
   0.46153846  0.46153846  0.25000000       0.012
   0.00000000  0.00000000  0.50000000       0.001
   0.07692308  0.00000000  0.50000000       0.006
   0.15384615  0.00000000  0.50000000       0.006
   0.23076923  0.00000000  0.50000000       0.006
   0.30769231  0.00000000  0.50000000       0.006
   0.38461538  0.00000000  0.50000000       0.006
   0.46153846  0.00000000  0.50000000       0.006
   0.07692308  0.07692308  0.50000000       0.006
   0.15384615  0.07692308  0.50000000       0.012
   0.23076923  0.07692308  0.50000000       0.012
   0.30769231  0.07692308  0.50000000       0.012
   0.38461538  0.07692308  0.50000000       0.012
   0.46153846  0.07692308  0.50000000       0.012
   0.15384615  0.15384615  0.50000000       0.006
   0.23076923  0.15384615  0.50000000       0.012
   0.30769231  0.15384615  0.50000000       0.012
   0.38461538  0.15384615  0.50000000       0.012
   0.46153846  0.15384615  0.50000000       0.012
   0.23076923  0.23076923  0.50000000       0.006
   0.30769231  0.23076923  0.50000000       0.012
   0.38461538  0.23076923  0.50000000       0.012
   0.46153846  0.23076923  0.50000000       0.012
   0.30769231  0.30769231  0.50000000       0.006
   0.38461538  0.30769231  0.50000000       0.012
   0.46153846  0.30769231  0.50000000       0.012
   0.38461538  0.38461538  0.50000000       0.006
   0.46153846  0.38461538  0.50000000       0.012
   0.46153846  0.46153846  0.50000000       0.006
 
 position of ions in fractional coordinates (direct lattice) 
   0.00000000  0.50000000  0.16664349
   0.00000000  0.50000000  0.49939367
   0.00000000  0.50000000  0.83206232
   0.50000000  0.50000000  0.00714647
   0.50000000  0.50000000  0.34245467
   0.50000000  0.50000000  0.66306985
   0.50000000  0.00000000  0.16664349
   0.50000000  0.00000000  0.49939367
   0.50000000  0.00000000  0.83206232
   0.00000000  0.00000000  0.99703611
   0.00000000  0.00000000  0.32850594
   0.00000000  0.00000000  0.66558801
 
 position of ions in cartesian coordinates  (Angst):
   0.00000000  1.89507496  1.92567795
   0.00000000  1.89507496  5.77083082
   0.00000000  1.89507496  9.61504161
   1.89507496  1.89507496  0.08258232
   1.89507496  1.89507496  3.95729476
   1.89507496  1.89507496  7.66221956
   1.89507496  0.00000000  1.92567795
   1.89507496  0.00000000  5.77083082
   1.89507496  0.00000000  9.61504161
   0.00000000  0.00000000 11.52142505
   0.00000000  0.00000000  3.79610779
   0.00000000  0.00000000  7.69131857
 


--------------------------------------------------------------------------------------------------------


 k-point     1 :   0.0000 0.0000 0.0000  plane waves:    4415
 k-point     2 :   0.0769 0.0000 0.0000  plane waves:    4434
 k-point     3 :   0.1538 0.0000 0.0000  plane waves:    4446
 k-point     4 :   0.2308 0.0000 0.0000  plane waves:    4452
 k-point     5 :   0.3077 0.0000 0.0000  plane waves:    4472
 k-point     6 :   0.3846 0.0000 0.0000  plane waves:    4480
 k-point     7 :   0.4615 0.0000 0.0000  plane waves:    4508
 k-point     8 :   0.0769 0.0769 0.0000  plane waves:    4450
 k-point     9 :   0.1538 0.0769 0.0000  plane waves:    4456
 k-point    10 :   0.2308 0.0769 0.0000  plane waves:    4460
 k-point    11 :   0.3077 0.0769 0.0000  plane waves:    4468
 k-point    12 :   0.3846 0.0769 0.0000  plane waves:    4466
 k-point    13 :   0.4615 0.0769 0.0000  plane waves:    4472
 k-point    14 :   0.1538 0.1538 0.0000  plane waves:    4470
 k-point    15 :   0.2308 0.1538 0.0000  plane waves:    4456
 k-point    16 :   0.3077 0.1538 0.0000  plane waves:    4469
 k-point    17 :   0.3846 0.1538 0.0000  plane waves:    4478
 k-point    18 :   0.4615 0.1538 0.0000  plane waves:    4482
 k-point    19 :   0.2308 0.2308 0.0000  plane waves:    4482
 k-point    20 :   0.3077 0.2308 0.0000  plane waves:    4473
 k-point    21 :   0.3846 0.2308 0.0000  plane waves:    4491
 k-point    22 :   0.4615 0.2308 0.0000  plane waves:    4487
 k-point    23 :   0.3077 0.3077 0.0000  plane waves:    4474
 k-point    24 :   0.3846 0.3077 0.0000  plane waves:    4480
 k-point    25 :   0.4615 0.3077 0.0000  plane waves:    4481
 k-point    26 :   0.3846 0.3846 0.0000  plane waves:    4478
 k-point    27 :   0.4615 0.3846 0.0000  plane waves:    4469
 k-point    28 :   0.4615 0.4615 0.0000  plane waves:    4466
 k-point    29 :   0.0000 0.0000 0.2500  plane waves:    4415
 k-point    30 :   0.0769 0.0000 0.2500  plane waves:    4437
 k-point    31 :   0.1538 0.0000 0.2500  plane waves:    4441
 k-point    32 :   0.2308 0.0000 0.2500  plane waves:    4449
 k-point    33 :   0.3077 0.0000 0.2500  plane waves:    4465
 k-point    34 :   0.3846 0.0000 0.2500  plane waves:    4464
 k-point    35 :   0.4615 0.0000 0.2500  plane waves:    4475
 k-point    36 :   0.0769 0.0769 0.2500  plane waves:    4435
 k-point    37 :   0.1538 0.0769 0.2500  plane waves:    4442
 k-point    38 :   0.2308 0.0769 0.2500  plane waves:    4461
 k-point    39 :   0.3077 0.0769 0.2500  plane waves:    4469
 k-point    40 :   0.3846 0.0769 0.2500  plane waves:    4471
 k-point    41 :   0.4615 0.0769 0.2500  plane waves:    4482
 k-point    42 :   0.1538 0.1538 0.2500  plane waves:    4453
 k-point    43 :   0.2308 0.1538 0.2500  plane waves:    4469
 k-point    44 :   0.3077 0.1538 0.2500  plane waves:    4469
 k-point    45 :   0.3846 0.1538 0.2500  plane waves:    4480
 k-point    46 :   0.4615 0.1538 0.2500  plane waves:    4479
 k-point    47 :   0.2308 0.2308 0.2500  plane waves:    4477
 k-point    48 :   0.3077 0.2308 0.2500  plane waves:    4465
 k-point    49 :   0.3846 0.2308 0.2500  plane waves:    4489
 k-point    50 :   0.4615 0.2308 0.2500  plane waves:    4486
 k-point    51 :   0.3077 0.3077 0.2500  plane waves:    4474
 k-point    52 :   0.3846 0.3077 0.2500  plane waves:    4485
 k-point    53 :   0.4615 0.3077 0.2500  plane waves:    4493
 k-point    54 :   0.3846 0.3846 0.2500  plane waves:    4489
 k-point    55 :   0.4615 0.3846 0.2500  plane waves:    4481
 k-point    56 :   0.4615 0.4615 0.2500  plane waves:    4474
 k-point    57 :   0.0000 0.0000 0.5000  plane waves:    4394
 k-point    58 :   0.0769 0.0000 0.5000  plane waves:    4422
 k-point    59 :   0.1538 0.0000 0.5000  plane waves:    4428
 k-point    60 :   0.2308 0.0000 0.5000  plane waves:    4456
 k-point    61 :   0.3077 0.0000 0.5000  plane waves:    4476
 k-point    62 :   0.3846 0.0000 0.5000  plane waves:    4474
 k-point    63 :   0.4615 0.0000 0.5000  plane waves:    4466
 k-point    64 :   0.0769 0.0769 0.5000  plane waves:    4430
 k-point    65 :   0.1538 0.0769 0.5000  plane waves:    4434
 k-point    66 :   0.2308 0.0769 0.5000  plane waves:    4450
 k-point    67 :   0.3077 0.0769 0.5000  plane waves:    4472
 k-point    68 :   0.3846 0.0769 0.5000  plane waves:    4478
 k-point    69 :   0.4615 0.0769 0.5000  plane waves:    4472
 k-point    70 :   0.1538 0.1538 0.5000  plane waves:    4444
 k-point    71 :   0.2308 0.1538 0.5000  plane waves:    4462
 k-point    72 :   0.3077 0.1538 0.5000  plane waves:    4474
 k-point    73 :   0.3846 0.1538 0.5000  plane waves:    4486
 k-point    74 :   0.4615 0.1538 0.5000  plane waves:    4480
 k-point    75 :   0.2308 0.2308 0.5000  plane waves:    4454
 k-point    76 :   0.3077 0.2308 0.5000  plane waves:    4474
 k-point    77 :   0.3846 0.2308 0.5000  plane waves:    4474
 k-point    78 :   0.4615 0.2308 0.5000  plane waves:    4492
 k-point    79 :   0.3077 0.3077 0.5000  plane waves:    4480
 k-point    80 :   0.3846 0.3077 0.5000  plane waves:    4474
 k-point    81 :   0.4615 0.3077 0.5000  plane waves:    4478
 k-point    82 :   0.3846 0.3846 0.5000  plane waves:    4470
 k-point    83 :   0.4615 0.3846 0.5000  plane waves:    4474
 k-point    84 :   0.4615 0.4615 0.5000  plane waves:    4486

 maximum and minimum number of plane-waves per node :      4508     4394

 maximum number of plane-waves:      4508
 maximum index in each direction: 
   IXMAX=    7   IYMAX=    7   IZMAX=   21
   IXMIN=   -7   IYMIN=   -7   IZMIN=  -21


 serial   3D FFT for wavefunctions
 parallel 3D FFT for charge:
    minimum data exchange during FFTs selected (reduces bandwidth)


 total amount of memory used by VASP MPI-rank0   199566. kBytes
=======================================================================

   base      :      30000. kBytes
   nonl-proj :     110020. kBytes
   fftplans  :        955. kBytes
   grid      :       7297. kBytes
   one-center:        373. kBytes
   wavefun   :      50921. kBytes
 
     INWAV:  cpu time      0.0000: real time      0.0000
 Broyden mixing: mesh for mixing (old mesh)
   NGX = 15   NGY = 15   NGZ = 43
  (NGX  = 56   NGY  = 56   NGZ  =180)
  gives a total of   9675 points

 initial charge density was supplied:
 charge density of overlapping atoms calculated
 number of electron     156.0000000 magnetization       8.6190000
 keeping initial charge density in first step


--------------------------------------------------------------------------------------------------------


 Maximum index for augmentation-charges         1056 (set IRDMAX)


--------------------------------------------------------------------------------------------------------


 First call to EWALD:  gamma=   0.323
 Maximum number of real-space cells 4x 4x 2
 Maximum number of reciprocal cells 2x 2x 5

    FEWALD:  cpu time      0.0014: real time      0.0014


--------------------------------------- Ionic step        1  -------------------------------------------




--------------------------------------- Iteration      1(   1)  ---------------------------------------


    POTLOK:  cpu time      0.0264: real time      0.1031
    SETDIJ:  cpu time      0.0092: real time      0.0096
     EDDAV:  cpu time      6.3325: real time      6.3786
 BZINTS: Fermi energy:   22.328640;  156.000000 electrons
         Band energy: 0.414874E+03;  BLOECHL correction:   -0.054062
       DOS:  cpu time      0.1265: real time      0.1284
    --------------------------------------------
      LOOP:  cpu time      6.4945: real time      6.6197

 eigenvalue-minimisations  : 43008
 total energy-change (2. order) : 0.1771602E+04  (-0.8531828E+04)
 number of electron     156.0000000 magnetization       8.6190000
 augmentation part      156.0000000 magnetization       8.6190000

 Free energy of the ion-electron system (eV)
  ---------------------------------------------------
  alpha Z        PSCENC =      1025.24174436
  Ewald energy   TEWEN  =    -17710.61923267
  -Hartree energ DENC   =     -6192.91176081
  -exchange      EXHF   =         0.00000000
  -V(xc)+E(xc)   XCENC  =       654.81015039
  PAW double counting   =     20093.65663588   -20817.55210826
  entropy T*S    EENTRO =         0.00000000
  eigenvalues    EBANDS =       414.87387590
  atomic energy  EATOM  =     24304.10294433
  Solvation  Ediel_sol  =         0.00000000
  ---------------------------------------------------
  free energy    TOTEN  =      1771.60224910 eV

  energy without entropy =     1771.60224910  energy(sigma->0) =     1771.60224910


--------------------------------------------------------------------------------------------------------




--------------------------------------- Iteration      1(   2)  ---------------------------------------


     EDDAV:  cpu time      6.2760: real time      6.3341
 BZINTS: Fermi energy:   11.406335;  156.000000 electrons
         Band energy:-0.135118E+04;  BLOECHL correction:   -0.019211
       DOS:  cpu time      0.1266: real time      0.1276
    --------------------------------------------
      LOOP:  cpu time      6.4026: real time      6.4617

 eigenvalue-minimisations  : 43008
 total energy-change (2. order) :-0.1766049E+04  (-0.1677743E+04)
 number of electron     156.0000000 magnetization       8.6190000
 augmentation part      156.0000000 magnetization       8.6190000

 Free energy of the ion-electron system (eV)
  ---------------------------------------------------
  alpha Z        PSCENC =      1025.24174436
  Ewald energy   TEWEN  =    -17710.61923267
  -Hartree energ DENC   =     -6192.91176081
  -exchange      EXHF   =         0.00000000
  -V(xc)+E(xc)   XCENC  =       654.81015039
  PAW double counting   =     20093.65663588   -20817.55210826
  entropy T*S    EENTRO =         0.00000000
  eigenvalues    EBANDS =     -1351.17558292
  atomic energy  EATOM  =     24304.10294433
  Solvation  Ediel_sol  =         0.00000000
  ---------------------------------------------------
  free energy    TOTEN  =         5.55279028 eV

  energy without entropy =        5.55279028  energy(sigma->0) =        5.55279028


--------------------------------------------------------------------------------------------------------




--------------------------------------- Iteration      1(   3)  ---------------------------------------


     EDDAV:  cpu time      7.3926: real time      7.4571
 BZINTS: Fermi energy:   10.832424;  156.000000 electrons
         Band energy:-0.145962E+04;  BLOECHL correction:   -0.018498
       DOS:  cpu time      0.1253: real time      0.1265
    --------------------------------------------
      LOOP:  cpu time      7.5178: real time      7.5837

 eigenvalue-minimisations  : 50848
 total energy-change (2. order) :-0.1084472E+03  (-0.1070320E+03)
 number of electron     156.0000000 magnetization       8.6190000
 augmentation part      156.0000000 magnetization       8.6190000

 Free energy of the ion-electron system (eV)
  ---------------------------------------------------
  alpha Z        PSCENC =      1025.24174436
  Ewald energy   TEWEN  =    -17710.61923267
  -Hartree energ DENC   =     -6192.91176081
  -exchange      EXHF   =         0.00000000
  -V(xc)+E(xc)   XCENC  =       654.81015039
  PAW double counting   =     20093.65663588   -20817.55210826
  entropy T*S    EENTRO =         0.00000000
  eigenvalues    EBANDS =     -1459.62281202
  atomic energy  EATOM  =     24304.10294433
  Solvation  Ediel_sol  =         0.00000000
  ---------------------------------------------------
  free energy    TOTEN  =      -102.89443881 eV

  energy without entropy =     -102.89443881  energy(sigma->0) =     -102.89443881


--------------------------------------------------------------------------------------------------------




--------------------------------------- Iteration      1(   4)  ---------------------------------------


     EDDAV:  cpu time      6.6161: real time      6.6616
 BZINTS: Fermi energy:   10.827247;  156.000000 electrons
         Band energy:-0.146126E+04;  BLOECHL correction:   -0.018415
       DOS:  cpu time      0.1268: real time      0.1279
    --------------------------------------------
      LOOP:  cpu time      6.7429: real time      6.7895

 eigenvalue-minimisations  : 45824
 total energy-change (2. order) :-0.1636858E+01  (-0.1636601E+01)
 number of electron     156.0000000 magnetization       8.6190000
 augmentation part      156.0000000 magnetization       8.6190000

 Free energy of the ion-electron system (eV)
  ---------------------------------------------------
  alpha Z        PSCENC =      1025.24174436
  Ewald energy   TEWEN  =    -17710.61923267
  -Hartree energ DENC   =     -6192.91176081
  -exchange      EXHF   =         0.00000000
  -V(xc)+E(xc)   XCENC  =       654.81015039
  PAW double counting   =     20093.65663588   -20817.55210826
  entropy T*S    EENTRO =         0.00000000
  eigenvalues    EBANDS =     -1461.25966971
  atomic energy  EATOM  =     24304.10294433
  Solvation  Ediel_sol  =         0.00000000
  ---------------------------------------------------
  free energy    TOTEN  =      -104.53129651 eV

  energy without entropy =     -104.53129651  energy(sigma->0) =     -104.53129651


--------------------------------------------------------------------------------------------------------




--------------------------------------- Iteration      1(   5)  ---------------------------------------


     EDDAV:  cpu time      7.8383: real time      7.9044
 BZINTS: Fermi energy:   10.827200;  156.000000 electrons
         Band energy:-0.146129E+04;  BLOECHL correction:   -0.018413
       DOS:  cpu time      0.1285: real time      0.1295
    CHARGE:  cpu time      0.1603: real time      0.1618
    MIXING:  cpu time      0.0052: real time      0.0053
    --------------------------------------------
      LOOP:  cpu time      8.1323: real time      8.2009

 eigenvalue-minimisations  : 52992
 total energy-change (2. order) :-0.3390591E-01  (-0.3390593E-01)
 number of electron     156.0000001 magnetization       8.2911310
 augmentation part       79.2777181 magnetization       6.0774854

 Broyden mixing:
  rms(total) = 0.36038E+01    rms(broyden)= 0.36036E+01
  rms(prec ) = 0.41671E+01
  weight for this iteration     100.00

 Free energy of the ion-electron system (eV)
  ---------------------------------------------------
  alpha Z        PSCENC =      1025.24174436
  Ewald energy   TEWEN  =    -17710.61923267
  -Hartree energ DENC   =     -6192.91176081
  -exchange      EXHF   =         0.00000000
  -V(xc)+E(xc)   XCENC  =       654.81015039
  PAW double counting   =     20093.65663588   -20817.55210826
  entropy T*S    EENTRO =         0.00000000
  eigenvalues    EBANDS =     -1461.29357562
  atomic energy  EATOM  =     24304.10294433
  Solvation  Ediel_sol  =         0.00000000
  ---------------------------------------------------
  free energy    TOTEN  =      -104.56520242 eV

  energy without entropy =     -104.56520242  energy(sigma->0) =     -104.56520242


--------------------------------------------------------------------------------------------------------




--------------------------------------- Iteration      1(   6)  ---------------------------------------


    POTLOK:  cpu time      0.0317: real time      0.0458
    SETDIJ:  cpu time      0.0078: real time      0.0079
     EDDAV:  cpu time      7.6508: real time      7.7021
 BZINTS: Fermi energy:    8.136941;  156.000000 electrons
         Band energy:-0.191498E+04;  BLOECHL correction:   -0.018804
       DOS:  cpu time      0.1327: real time      0.1336
    CHARGE:  cpu time      0.1547: real time      0.1556
    MIXING:  cpu time      0.0030: real time      0.0031
    --------------------------------------------
      LOOP:  cpu time      7.9807: real time      8.0480

 eigenvalue-minimisations  : 51904
 total energy-change (2. order) :-0.1187570E+02  (-0.1883866E+02)
 number of electron     156.0000011 magnetization       8.2575663
 augmentation part       89.2760221 magnetization       5.9669203

 Broyden mixing:
  rms(total) = 0.75487E+01    rms(broyden)= 0.75486E+01
  rms(prec ) = 0.11385E+02
  weight for this iteration     100.00

 eigenvalues of (default mixing * dielectric matrix)
  average eigenvalue GAMMA=   0.1837
  0.1837

 Free energy of the ion-electron system (eV)
  ---------------------------------------------------
  alpha Z        PSCENC =      1025.24174436
  Ewald energy   TEWEN  =    -17710.61923267
  -Hartree energ DENC   =     -5759.32263066
  -exchange      EXHF   =         0.00000000
  -V(xc)+E(xc)   XCENC  =       637.13029944
  PAW double counting   =     20220.81143509   -20918.80107152
  entropy T*S    EENTRO =         0.00000000
  eigenvalues    EBANDS =     -1914.98438747
  atomic energy  EATOM  =     24304.10294433
  Solvation  Ediel_sol  =         0.00000000
  ---------------------------------------------------
  free energy    TOTEN  =      -116.44089912 eV

  energy without entropy =     -116.44089912  energy(sigma->0) =     -116.44089912


--------------------------------------------------------------------------------------------------------




--------------------------------------- Iteration      1(   7)  ---------------------------------------


    POTLOK:  cpu time      0.0449: real time      0.0457
    SETDIJ:  cpu time      0.0076: real time      0.0076
     EDDAV:  cpu time      7.7843: real time      7.8352
 BZINTS: Fermi energy:    8.742196;  156.000000 electrons
         Band energy:-0.182023E+04;  BLOECHL correction:   -0.016025
       DOS:  cpu time      0.1328: real time      0.1338
    CHARGE:  cpu time      0.1554: real time      0.1563
    MIXING:  cpu time      0.0028: real time      0.0030
    --------------------------------------------
      LOOP:  cpu time      8.1278: real time      8.1815

 eigenvalue-minimisations  : 52480
 total energy-change (2. order) : 0.8132647E+01  (-0.4317221E+02)
 number of electron     156.0000003 magnetization       7.6465305
 augmentation part       86.4702332 magnetization       7.5434246

 Broyden mixing:
  rms(total) = 0.60337E+01    rms(broyden)= 0.60335E+01
  rms(prec ) = 0.94915E+01
  weight for this iteration     100.00

 eigenvalues of (default mixing * dielectric matrix)
  average eigenvalue GAMMA=   0.2409
  0.3716  0.1102

 Free energy of the ion-electron system (eV)
  ---------------------------------------------------
  alpha Z        PSCENC =      1025.24174436
  Ewald energy   TEWEN  =    -17710.61923267
  -Hartree energ DENC   =     -5833.01919449
  -exchange      EXHF   =         0.00000000
  -V(xc)+E(xc)   XCENC  =       638.82693072
  PAW double counting   =     20493.51529470   -21206.12233798
  entropy T*S    EENTRO =         0.00000000
  eigenvalues    EBANDS =     -1820.23440149
  atomic energy  EATOM  =     24304.10294433
  Solvation  Ediel_sol  =         0.00000000
  ---------------------------------------------------
  free energy    TOTEN  =      -108.30825252 eV

  energy without entropy =     -108.30825252  energy(sigma->0) =     -108.30825252


--------------------------------------------------------------------------------------------------------




--------------------------------------- Iteration      1(   8)  ---------------------------------------


    POTLOK:  cpu time      0.0327: real time      0.0459
    SETDIJ:  cpu time      0.0078: real time      0.0078
     EDDAV:  cpu time      7.4487: real time      7.4998
 BZINTS: Fermi energy:    9.263109;  156.000000 electrons
         Band energy:-0.170465E+04;  BLOECHL correction:   -0.015553
       DOS:  cpu time      0.1326: real time      0.1335
    CHARGE:  cpu time      0.1548: real time      0.1559
    MIXING:  cpu time      0.0019: real time      0.0019
    --------------------------------------------
      LOOP:  cpu time      7.7784: real time      7.8449

 eigenvalue-minimisations  : 51264
 total energy-change (2. order) : 0.1289817E+02  (-0.1105534E+02)
 number of electron     155.9999997 magnetization       7.6815080
 augmentation part       84.0353049 magnetization       4.4700970

 Broyden mixing:
  rms(total) = 0.27888E+01    rms(broyden)= 0.27885E+01
  rms(prec ) = 0.39594E+01
  weight for this iteration     100.00

 eigenvalues of (default mixing * dielectric matrix)
  average eigenvalue GAMMA=   0.3873
  0.7576  0.3032  0.1010

 Free energy of the ion-electron system (eV)
  ---------------------------------------------------
  alpha Z        PSCENC =      1025.24174436
  Ewald energy   TEWEN  =    -17710.61923267
  -Hartree energ DENC   =     -5917.79892809
  -exchange      EXHF   =         0.00000000
  -V(xc)+E(xc)   XCENC  =       641.16701902
  PAW double counting   =     20908.43501395   -21641.29280062
  entropy T*S    EENTRO =         0.00000000
  eigenvalues    EBANDS =     -1704.64583915
  atomic energy  EATOM  =     24304.10294433
  Solvation  Ediel_sol  =         0.00000000
  ---------------------------------------------------
  free energy    TOTEN  =       -95.41007888 eV

  energy without entropy =      -95.41007888  energy(sigma->0) =      -95.41007888


--------------------------------------------------------------------------------------------------------




--------------------------------------- Iteration      1(   9)  ---------------------------------------


    POTLOK:  cpu time      0.0318: real time      0.0459
    SETDIJ:  cpu time      0.0081: real time      0.0081
     EDDAV:  cpu time      7.6126: real time      7.6628
 BZINTS: Fermi energy:    9.320262;  156.000000 electrons
         Band energy:-0.172358E+04;  BLOECHL correction:   -0.015748
       DOS:  cpu time      0.1325: real time      0.1334
    CHARGE:  cpu time      0.1550: real time      0.1560
    MIXING:  cpu time      0.0019: real time      0.0019
    --------------------------------------------
      LOOP:  cpu time      7.9419: real time      8.0082

 eigenvalue-minimisations  : 52160
 total energy-change (2. order) :-0.9591469E+01  (-0.1363861E+02)
 number of electron     156.0000011 magnetization       7.3905490
 augmentation part       84.4246339 magnetization       7.0551825

 Broyden mixing:
  rms(total) = 0.61085E+01    rms(broyden)= 0.61083E+01
  rms(prec ) = 0.91542E+01
  weight for this iteration     100.00

 eigenvalues of (default mixing * dielectric matrix)
  average eigenvalue GAMMA=   0.4094
  1.0868  0.3526  0.0930  0.1051

 Free energy of the ion-electron system (eV)
  ---------------------------------------------------
  alpha Z        PSCENC =      1025.24174436
  Ewald energy   TEWEN  =    -17710.61923267
  -Hartree energ DENC   =     -5902.12138224
  -exchange      EXHF   =         0.00000000
  -V(xc)+E(xc)   XCENC  =       640.90406368
  PAW double counting   =     21105.47570340   -21844.40792397
  entropy T*S    EENTRO =         0.00000000
  eigenvalues    EBANDS =     -1723.57746514
  atomic energy  EATOM  =     24304.10294433
  Solvation  Ediel_sol  =         0.00000000
  ---------------------------------------------------
  free energy    TOTEN  =      -105.00154825 eV

  energy without entropy =     -105.00154825  energy(sigma->0) =     -105.00154825


--------------------------------------------------------------------------------------------------------




--------------------------------------- Iteration      1(  10)  ---------------------------------------


    POTLOK:  cpu time      0.0450: real time      0.0460
    SETDIJ:  cpu time      0.0078: real time      0.0078
     EDDAV:  cpu time      7.6427: real time      7.6957
 BZINTS: Fermi energy:    8.826704;  156.000000 electrons
         Band energy:-0.174202E+04;  BLOECHL correction:   -0.011719
       DOS:  cpu time      0.1323: real time      0.1336
    CHARGE:  cpu time      0.1559: real time      0.1568
    MIXING:  cpu time      0.0018: real time      0.0018
    --------------------------------------------
      LOOP:  cpu time      7.9856: real time      8.0417

 eigenvalue-minimisations  : 51808
 total energy-change (2. order) : 0.1093223E+02  (-0.1390034E+02)
 number of electron     156.0000004 magnetization       7.3480632
 augmentation part       85.1076318 magnetization       5.4704777

 Broyden mixing:
  rms(total) = 0.27723E+01    rms(broyden)= 0.27721E+01
  rms(prec ) = 0.41107E+01
  weight for this iteration     100.00

 eigenvalues of (default mixing * dielectric matrix)
  average eigenvalue GAMMA=   0.3541
  1.0943  0.3375  0.1556  0.0893  0.0940

 Free energy of the ion-electron system (eV)
  ---------------------------------------------------
  alpha Z        PSCENC =      1025.24174436
  Ewald energy   TEWEN  =    -17710.61923267
  -Hartree energ DENC   =     -5867.31438860
  -exchange      EXHF   =         0.00000000
  -V(xc)+E(xc)   XCENC  =       639.41528478
  PAW double counting   =     21276.82128723   -22019.69711224
  entropy T*S    EENTRO =         0.00000000
  eigenvalues    EBANDS =     -1742.01984551
  atomic energy  EATOM  =     24304.10294433
  Solvation  Ediel_sol  =         0.00000000
  ---------------------------------------------------
  free energy    TOTEN  =       -94.06931832 eV

  energy without entropy =      -94.06931832  energy(sigma->0) =      -94.06931832


--------------------------------------------------------------------------------------------------------




--------------------------------------- Iteration      1(  11)  ---------------------------------------


    POTLOK:  cpu time      0.0456: real time      0.0466
    SETDIJ:  cpu time      0.0079: real time      0.0079
     EDDAV:  cpu time      7.4480: real time      7.4977
 BZINTS: Fermi energy:    8.908118;  156.000000 electrons
         Band energy:-0.174077E+04;  BLOECHL correction:   -0.018928
       DOS:  cpu time      0.1325: real time      0.1334
    CHARGE:  cpu time      0.1548: real time      0.1559
    MIXING:  cpu time      0.0019: real time      0.0019
    --------------------------------------------
      LOOP:  cpu time      7.7907: real time      7.8434

 eigenvalue-minimisations  : 51200
 total energy-change (2. order) : 0.1886254E+01  (-0.2313812E+01)
 number of electron     155.9999999 magnetization       7.3948330
 augmentation part       84.9124148 magnetization       5.3270541

 Broyden mixing:
  rms(total) = 0.14165E+01    rms(broyden)= 0.14164E+01
  rms(prec ) = 0.17064E+01
  weight for this iteration     100.00

 eigenvalues of (default mixing * dielectric matrix)
  average eigenvalue GAMMA=   0.3588
  1.1254  0.3646  0.3646  0.0932  0.1026  0.1026

 Free energy of the ion-electron system (eV)
  ---------------------------------------------------
  alpha Z        PSCENC =      1025.24174436
  Ewald energy   TEWEN  =    -17710.61923267
  -Hartree energ DENC   =     -5865.39355327
  -exchange      EXHF   =         0.00000000
  -V(xc)+E(xc)   XCENC  =       639.46618751
  PAW double counting   =     21317.30532182   -22061.51581845
  entropy T*S    EENTRO =         0.00000000
  eigenvalues    EBANDS =     -1740.77065754
  atomic energy  EATOM  =     24304.10294433
  Solvation  Ediel_sol  =         0.00000000
  ---------------------------------------------------
  free energy    TOTEN  =       -92.18306392 eV

  energy without entropy =      -92.18306392  energy(sigma->0) =      -92.18306392


--------------------------------------------------------------------------------------------------------




--------------------------------------- Iteration      1(  12)  ---------------------------------------


    POTLOK:  cpu time      0.0454: real time      0.0463
    SETDIJ:  cpu time      0.0081: real time      0.0082
     EDDAV:  cpu time      7.5355: real time      7.5849
 BZINTS: Fermi energy:    8.970947;  156.000000 electrons
         Band energy:-0.173617E+04;  BLOECHL correction:   -0.019442
       DOS:  cpu time      0.1323: real time      0.1332
    CHARGE:  cpu time      0.1553: real time      0.1562
    MIXING:  cpu time      0.0020: real time      0.0020
    --------------------------------------------
      LOOP:  cpu time      7.8786: real time      7.9307

 eigenvalue-minimisations  : 52064
 total energy-change (2. order) :-0.3324358E+00  (-0.3687735E+00)
 number of electron     155.9999999 magnetization       7.4689055
 augmentation part       84.7808210 magnetization       5.2978531

 Broyden mixing:
  rms(total) = 0.95957E+00    rms(broyden)= 0.95953E+00
  rms(prec ) = 0.11553E+01
  weight for this iteration     100.00

 eigenvalues of (default mixing * dielectric matrix)
  average eigenvalue GAMMA=   0.4024
  1.1621  0.5210  0.5210  0.3188  0.1103  0.1004  0.0831

 Free energy of the ion-electron system (eV)
  ---------------------------------------------------
  alpha Z        PSCENC =      1025.24174436
  Ewald energy   TEWEN  =    -17710.61923267
  -Hartree energ DENC   =     -5867.94215396
  -exchange      EXHF   =         0.00000000
  -V(xc)+E(xc)   XCENC  =       640.23866612
  PAW double counting   =     21395.43630176   -22142.80526640
  entropy T*S    EENTRO =         0.00000000
  eigenvalues    EBANDS =     -1736.16850328
  atomic energy  EATOM  =     24304.10294433
  Solvation  Ediel_sol  =         0.00000000
  ---------------------------------------------------
  free energy    TOTEN  =       -92.51549975 eV

  energy without entropy =      -92.51549975  energy(sigma->0) =      -92.51549975


--------------------------------------------------------------------------------------------------------




--------------------------------------- Iteration      1(  13)  ---------------------------------------


    POTLOK:  cpu time      0.0444: real time      0.0456
    SETDIJ:  cpu time      0.0076: real time      0.0076
     EDDAV:  cpu time      7.5051: real time      7.5545
 BZINTS: Fermi energy:    8.961424;  156.000000 electrons
         Band energy:-0.173929E+04;  BLOECHL correction:   -0.019065
       DOS:  cpu time      0.1329: real time      0.1339
    CHARGE:  cpu time      0.1568: real time      0.1576
    MIXING:  cpu time      0.0019: real time      0.0020
    --------------------------------------------
      LOOP:  cpu time      7.8487: real time      7.9011

 eigenvalue-minimisations  : 51456
 total energy-change (2. order) :-0.3169274E+00  (-0.2907466E+00)
 number of electron     155.9999999 magnetization       7.6849122
 augmentation part       84.8585580 magnetization       5.4959395

 Broyden mixing:
  rms(total) = 0.10830E+01    rms(broyden)= 0.10830E+01
  rms(prec ) = 0.13347E+01
  weight for this iteration     100.00

 eigenvalues of (default mixing * dielectric matrix)
  average eigenvalue GAMMA=   0.4185
  1.1593  0.7264  0.7264  0.3215  0.1305  0.0855  0.0991  0.0991

 Free energy of the ion-electron system (eV)
  ---------------------------------------------------
  alpha Z        PSCENC =      1025.24174436
  Ewald energy   TEWEN  =    -17710.61923267
  -Hartree energ DENC   =     -5864.49824442
  -exchange      EXHF   =         0.00000000
  -V(xc)+E(xc)   XCENC  =       640.43106231
  PAW double counting   =     21426.91230799   -22175.11425781
  entropy T*S    EENTRO =         0.00000000
  eigenvalues    EBANDS =     -1739.28875120
  atomic energy  EATOM  =     24304.10294433
  Solvation  Ediel_sol  =         0.00000000
  ---------------------------------------------------
  free energy    TOTEN  =       -92.83242711 eV

  energy without entropy =      -92.83242711  energy(sigma->0) =      -92.83242711


--------------------------------------------------------------------------------------------------------




--------------------------------------- Iteration      1(  14)  ---------------------------------------


    POTLOK:  cpu time      0.0456: real time      0.0467
    SETDIJ:  cpu time      0.0080: real time      0.0080
     EDDAV:  cpu time      7.5842: real time      7.6360
[...]
    113      22.6337      0.00000
    114      23.0790      0.00000
    115      23.1371      0.00000
    116      23.3267      0.00000
    117      23.4970      0.00000
    118      24.1771      0.00000
    119      24.3293      0.00000
    120      26.1745      0.00000
    121      26.2051      0.00000
    122      26.2556      0.00000
    123      26.6366      0.00000
    124      27.0526      0.00000
    125      27.3845      0.00000
    126      27.5755      0.00000
    127      27.8288      0.00000
    128      28.2433      0.00000


--------------------------------------------------------------------------------------------------------


 soft charge-density along one line, spin component           1
         0         1         2         3         4         5         6         7         8         9
 total charge-density along one line
 
 soft charge-density along one line, spin component           2
         0         1         2         3         4         5         6         7         8         9
 total charge-density along one line
 
 pseudopotential strength for first ion, spin component:           1
-43.506   0.000   0.000   6.991  -0.000  -0.000   0.000   0.005
  0.000 -43.541   0.000  -0.000   7.005  -0.000  -0.000   0.000
  0.000   0.000 -43.465  -0.000  -0.000   6.973   0.000  -0.000
  6.991  -0.000  -0.000   5.830  -0.000  -0.000  -0.000  -0.002
 -0.000   7.005  -0.000  -0.000   5.826  -0.000   0.000  -0.000
 -0.000  -0.000   6.973  -0.000  -0.000   5.834  -0.000   0.000
  0.000  -0.000   0.000  -0.000   0.000  -0.000  -0.915   0.000
  0.005   0.000  -0.000  -0.002  -0.000   0.000   0.000  -0.927
 -0.000   0.006  -0.000   0.000  -0.001  -0.000  -0.000   0.000
 -0.000   0.000  -0.002   0.000  -0.000   0.004   0.000   0.000
 -0.000  -0.003   0.000   0.000   0.003  -0.000  -0.000  -0.000
  0.000  -0.000   0.000  -0.000   0.000  -0.000  -1.448   0.000
  0.004   0.000  -0.000  -0.002  -0.000   0.000   0.000  -1.459
 -0.000   0.006   0.000   0.000  -0.001  -0.000  -0.000   0.000
 -0.000   0.000  -0.002   0.000  -0.000   0.004   0.000   0.000
 -0.000  -0.003  -0.000   0.000   0.003  -0.000  -0.000  -0.000
 -0.000   0.001  -0.000  -0.000   0.002   0.000  -0.000  -0.000
 -0.000   0.003  -0.000  -0.000   0.005   0.000  -0.000  -0.000
 pseudopotential strength for first ion, spin component:           2
-45.849   0.000   0.000   7.976  -0.000  -0.000  -0.000   0.007
  0.000 -45.913   0.000  -0.000   8.001  -0.000  -0.000   0.000
  0.000   0.000 -45.715  -0.000  -0.000   7.920   0.000  -0.000
  7.976  -0.000  -0.000   5.548  -0.000  -0.000   0.000  -0.004
 -0.000   8.001  -0.000  -0.000   5.543  -0.000   0.000  -0.000
 -0.000  -0.000   7.920  -0.000  -0.000   5.560  -0.000   0.000
 -0.000  -0.000   0.000   0.000   0.000  -0.000  -2.723   0.000
  0.007   0.000  -0.000  -0.004  -0.000   0.000   0.000  -2.896
 -0.000   0.016   0.000   0.000  -0.007  -0.000  -0.000   0.000
 -0.000   0.000   0.028   0.000  -0.000  -0.012   0.000   0.000
 -0.000   0.011   0.000   0.000  -0.004   0.000  -0.000  -0.000
  0.000  -0.000   0.000   0.000   0.000  -0.000  -3.226   0.000
  0.006   0.000  -0.000  -0.004  -0.000   0.000   0.000  -3.396
 -0.000   0.016   0.000   0.000  -0.007  -0.000  -0.000   0.000
 -0.000   0.000   0.027   0.000   0.000  -0.012   0.000   0.000
 -0.000   0.011  -0.000   0.000  -0.004   0.000  -0.000  -0.000
 -0.000  -0.006   0.000  -0.000   0.004  -0.000  -0.000  -0.000
 -0.000  -0.015   0.000  -0.000   0.010   0.000  -0.000  -0.000
 total augmentation occupancy for first ion, spin component:           1
  1.992   0.000   0.000  -0.028   0.000   0.000   0.000  -0.007   0.000   0.000   0.000   0.000   0.007   0.000   0.000   0.000
  0.000   1.992   0.000   0.000  -0.029  -0.000   0.000   0.000  -0.005   0.000   0.003   0.000   0.000   0.005   0.000  -0.003
  0.000   0.000   1.992   0.000  -0.000  -0.028   0.000   0.000   0.000  -0.001  -0.000   0.000  -0.000   0.000   0.001  -0.000
 -0.028   0.000   0.000   0.166   0.000   0.000   0.000  -0.022   0.000   0.000   0.000   0.000   0.029   0.000   0.000  -0.000
  0.000  -0.029  -0.000   0.000   0.166   0.000   0.000   0.000  -0.013   0.000   0.021   0.000   0.000   0.005   0.000  -0.034
  0.000  -0.000  -0.028   0.000   0.000   0.146  -0.000   0.000   0.000   0.018   0.000   0.000   0.000   0.000  -0.045   0.000
  0.000   0.000   0.000   0.000   0.000  -0.000   2.949   0.000   0.000   0.000   0.000  -1.518   0.000   0.000   0.000   0.000
 -0.007   0.000   0.000  -0.022   0.000   0.000   0.000   2.966   0.000   0.000   0.000   0.000  -1.856   0.000   0.000   0.000
  0.000  -0.005   0.000   0.000  -0.013   0.000   0.000   0.000   3.384   0.000   0.220   0.000   0.000  -1.855   0.000  -0.132
  0.000   0.000  -0.001   0.000   0.000   0.018   0.000   0.000   0.000   2.731   0.000   0.000   0.000   0.000  -1.382   0.000
  0.000   0.003  -0.000   0.000   0.021   0.000   0.000   0.000   0.220   0.000   3.006   0.000   0.000  -0.131   0.000  -1.621
  0.000   0.000   0.000   0.000   0.000   0.000  -1.518   0.000   0.000   0.000   0.000   1.537   0.000   0.000   0.000   0.000
  0.007   0.000  -0.000   0.029   0.000   0.000   0.000  -1.856   0.000   0.000   0.000   0.000   1.997   0.000   0.000   0.000
  0.000   0.005   0.000   0.000   0.005   0.000   0.000   0.000  -1.855   0.000  -0.131   0.000   0.000   1.624   0.000   0.048
  0.000   0.000   0.001   0.000   0.000  -0.045   0.000   0.000   0.000  -1.382   0.000   0.000   0.000   0.000   1.406  -0.000
  0.000  -0.003  -0.000  -0.000  -0.034   0.000   0.000   0.000  -0.132   0.000  -1.621   0.000   0.000   0.048  -0.000   1.500
  0.000  -0.000  -0.000   0.000  -0.001   0.000   0.000   0.000  -0.118   0.000   0.177   0.000   0.000   0.070  -0.000  -0.128
  0.000   0.001   0.000   0.000   0.000  -0.000   0.000   0.000   0.011   0.000  -0.011   0.000   0.000  -0.005   0.000   0.007
 total augmentation occupancy for first ion, spin component:           2
  0.002   0.000   0.000   0.009   0.000   0.000   0.000   0.002   0.000   0.000   0.000   0.000  -0.001   0.000   0.000   0.000
  0.000   0.002  -0.000   0.000   0.009  -0.000   0.000   0.000   0.004   0.000   0.004   0.000   0.000  -0.004   0.000  -0.005
  0.000  -0.000   0.002   0.000   0.000   0.009  -0.000   0.000   0.000   0.010   0.000  -0.000   0.000   0.000  -0.011  -0.000
  0.009   0.000   0.000  -0.007   0.000   0.000   0.000   0.022   0.000  -0.000   0.000   0.000  -0.018   0.000   0.000   0.000
  0.000   0.009   0.000   0.000  -0.003   0.000  -0.000   0.000  -0.002   0.000  -0.034   0.000   0.000  -0.010   0.000   0.011
  0.000  -0.000   0.009   0.000   0.000  -0.002   0.000   0.000   0.000  -0.062   0.000   0.000   0.000  -0.000   0.010  -0.000
  0.000   0.000  -0.000   0.000  -0.000   0.000  -2.395   0.000   0.000   0.000   0.000   1.110   0.000   0.000   0.000   0.000
  0.002   0.000   0.000   0.022   0.000   0.000   0.000  -2.270   0.000   0.000  -0.000   0.000   0.839  -0.000   0.000  -0.000
  0.000   0.004   0.000   0.000  -0.002   0.000   0.000   0.000  -2.826   0.000  -0.107   0.000   0.000   1.269   0.000   0.087
  0.000   0.000   0.010  -0.000   0.000  -0.062   0.000   0.000   0.000  -2.137   0.000   0.000   0.000   0.000   0.833   0.000
  0.000   0.004   0.000   0.000  -0.034   0.000   0.000  -0.000  -0.107   0.000  -2.503  -0.000   0.000   0.088   0.000   0.977
  0.000   0.000  -0.000   0.000   0.000   0.000   1.110   0.000   0.000   0.000  -0.000  -0.341   0.000   0.000   0.000   0.000
 -0.001   0.000   0.000  -0.018   0.000   0.000   0.000   0.839   0.000   0.000   0.000   0.000  -0.065  -0.000   0.000  -0.000
  0.000  -0.004   0.000   0.000  -0.010  -0.000   0.000  -0.000   1.269   0.000   0.088   0.000  -0.000  -0.462   0.000  -0.091
  0.000   0.000  -0.011   0.000   0.000   0.010   0.000   0.000   0.000   0.833   0.000   0.000   0.000   0.000  -0.113   0.000
  0.000  -0.005  -0.000   0.000   0.011  -0.000   0.000  -0.000   0.087   0.000   0.977   0.000  -0.000  -0.091   0.000  -0.196
  0.000  -0.001   0.000   0.000  -0.018   0.000   0.000   0.000   0.026  -0.000  -0.055   0.000   0.000  -0.035   0.000   0.046
  0.000   0.000   0.000  -0.000  -0.000  -0.000   0.000   0.000  -0.008   0.000   0.006   0.000   0.000   0.002   0.000  -0.001


------------------------ aborting loop because EDIFF is reached ----------------------------------------





 total charge

# of ion       s       p       d       tot
------------------------------------------
    1        0.336   6.294   5.981  12.611
    2        0.333   6.293   6.005  12.631
    3        0.330   6.288   5.977  12.596
    4        0.338   6.298   5.968  12.604
    5        0.337   6.296   5.982  12.615
    6        0.333   6.295   5.980  12.608
    7        0.336   6.294   5.981  12.611
    8        0.333   6.293   6.005  12.631
    9        0.330   6.288   5.977  12.596
   10        0.736   0.617   8.006   9.359
   11        0.742   0.616   8.011   9.369
   12        0.729   0.640   8.004   9.373
--------------------------------------------------
tot          5.213  58.513  77.878 141.604



 magnetization (x)

# of ion       s       p       d       tot
------------------------------------------
    1       -0.015  -0.006  -2.736  -2.757
    2        0.003  -0.012   2.751   2.741
    3        0.011   0.001   2.744   2.756
    4       -0.018  -0.020  -2.746  -2.785
    5        0.015   0.020   2.695   2.730
    6        0.003  -0.015   2.875   2.863
    7       -0.015  -0.006  -2.736  -2.757
    8        0.003  -0.012   2.751   2.741
    9        0.011   0.001   2.744   2.756
   10        0.007   0.015  -0.073  -0.051
   11       -0.008  -0.017   0.061   0.036
   12       -0.041  -0.098   0.412   0.273
--------------------------------------------------
tot         -0.044  -0.148   8.739   8.547
 
    CHARGE:  cpu time      0.1556: real time      0.1569
    FORLOC:  cpu time      0.0010: real time      0.0010
    FORNL :  cpu time      0.8428: real time      0.8473
    STRESS:  cpu time      4.7341: real time      4.7737
    FORCOR:  cpu time      0.0218: real time      0.0219
    FORHAR:  cpu time      0.0035: real time      0.0036
    MIXING:  cpu time      0.0029: real time      0.0034
    OFIELD:  cpu time      0.0013: real time      0.0013

  FORCE on cell =-STRESS in cart. coord.  units (eV):
  Direction    XX          YY          ZZ          XY          YZ          ZX
  --------------------------------------------------------------------------------------
  Alpha Z  1025.24174  1025.24174  1025.24174
  Ewald   -5889.40481 -5889.40481 -5931.83376     0.00000    -0.00000    -0.00000
  Hartree  1960.05672  1960.05672  1921.62721    -0.00000    -0.00000    -0.00000
  E(xc)    -942.02676  -942.02676  -941.97297    -0.00000     0.00000    -0.00000
  Local     933.44494   933.44494  1021.95073    -0.00000     0.00000    -0.00000
  n-local  -224.01582  -238.89364  -232.60496    13.21500     0.09706     0.11566
  augment  1442.20484  1442.20484  1437.93875     0.00000     0.00000    -0.00000
  Kinetic  1697.87633  1683.88924  1688.66408     2.29752     0.05292    -0.08998
  Fock        0.00000     0.00000     0.00000     0.00000     0.00000     0.00000
  -------------------------------------------------------------------------------------
  Total     -11.05529   -11.05529   -10.98917     0.00000     0.00000     0.00000
  in kB    -106.70199  -106.70199  -106.06390     0.00000     0.00000     0.00000
  external pressure =     -106.49 kB  Pullay stress =        0.00 kB


 VOLUME and BASIS-vectors are now :
 -----------------------------------------------------------------------------
  energy-cutoff  :      520.00
  volume of cell :      166.00
      direct lattice vectors                 reciprocal lattice vectors
     3.790149915  0.000000000  0.000000000     0.263841806  0.000000000  0.000000000
     0.000000000  3.790149915  0.000000000     0.000000000  0.263841806  0.000000000
     0.000000000  0.000000000 11.555674799     0.000000000  0.000000000  0.086537569

  length of vectors
     3.790149915  3.790149915 11.555674799     0.263841806  0.263841806  0.086537569


 FORCES acting on ions
    electron-ion (+dipol)            ewald-force                    non-local-force                 convergence-correction
 -----------------------------------------------------------------------------------------------
   -.500E-13 0.802E-12 0.397E+01   0.431E-13 -.276E-14 -.494E+01   0.103E-18 -.135E-17 0.936E+00   0.219E-13 -.696E-13 0.290E-01
   -.475E-13 0.116E-11 -.174E+02   0.514E-13 0.824E-14 0.177E+02   -.131E-18 0.907E-19 -.249E+00   0.212E-13 -.489E-13 -.488E-01
   -.449E-13 0.629E-12 -.377E+02   0.321E-13 0.165E-13 0.364E+02   0.123E-18 0.202E-18 0.122E+01   0.972E-15 -.366E-13 0.185E-01
   0.111E-11 0.676E-11 0.859E+02   0.188E-14 -.150E-13 -.832E+02   0.112E-17 0.475E-19 -.284E+01   -.101E-12 -.227E-13 0.732E-01
   0.112E-11 -.334E-11 0.106E+03   0.422E-13 0.370E-13 -.104E+03   0.311E-18 -.171E-19 -.278E+01   -.104E-12 -.198E-13 -.460E-01
   0.116E-11 -.416E-11 -.793E+02   0.621E-13 0.824E-14 0.796E+02   0.128E-18 0.296E-18 -.254E+00   -.104E-12 -.358E-13 -.279E-01
   0.111E-11 0.913E-12 0.397E+01   -.332E-13 0.109E-13 -.494E+01   0.578E-18 -.443E-19 0.936E+00   -.878E-13 -.322E-13 0.290E-01
   0.112E-11 0.471E-12 -.174E+02   -.312E-13 -.636E-14 0.177E+02   -.169E-18 -.185E-18 -.249E+00   -.912E-13 -.226E-13 -.488E-01
   0.111E-11 0.430E-12 -.377E+02   -.407E-13 0.758E-14 0.364E+02   -.248E-18 -.148E-18 0.122E+01   -.819E-13 -.242E-13 0.185E-01
   -.311E-13 -.127E-12 0.165E+02   -.319E-13 -.233E-14 -.171E+02   -.102E-17 -.148E-17 0.473E+00   0.257E-13 -.383E-14 0.513E-01
   -.339E-13 0.584E-13 0.143E+02   -.564E-13 -.180E-13 -.146E+02   -.507E-18 -.156E-17 0.391E+00   0.294E-13 -.122E-13 -.314E-01
   -.287E-13 -.458E-13 -.408E+02   -.591E-13 -.124E-13 0.406E+02   0.634E-18 -.132E-20 0.272E+00   0.265E-13 0.106E-14 -.193E-01
 -----------------------------------------------------------------------------------------------
   0.649E-11 0.356E-11 0.921E+00   -.196E-13 0.317E-13 0.284E-13   0.923E-18 -.415E-17 -.920E+00   -.445E-12 -.327E-12 -.262E-02
 
 
 POSITION                                       TOTAL-FORCE (eV/Angst)
 -----------------------------------------------------------------------------------
      0.00000      1.89507      1.92568        -0.000000      0.000000     -0.001024
      0.00000      1.89507      5.77083        -0.000000     -0.000000     -0.000969
      0.00000      1.89507      9.61504        -0.000000      0.000000     -0.001215
      1.89507      1.89507      0.08258         0.000000     -0.000000      0.014443
      1.89507      1.89507      3.95729         0.000000      0.000000     -0.022158
      1.89507      1.89507      7.66222        -0.000000      0.000000      0.015525
      1.89507      0.00000      1.92568        -0.000000      0.000000     -0.001024
      1.89507      0.00000      5.77083        -0.000000      0.000000     -0.000969
      1.89507      0.00000      9.61504        -0.000000      0.000000     -0.001215
      0.00000      0.00000     11.52143        -0.000000      0.000000     -0.010472
      0.00000      0.00000      3.79611        -0.000000      0.000000     -0.001481
      0.00000      0.00000      7.69132        -0.000000      0.000000      0.010559
 -----------------------------------------------------------------------------------
    total drift:                                0.000000      0.000000     -0.001986


--------------------------------------------------------------------------------------------------------



  FREE ENERGIE OF THE ION-ELECTRON SYSTEM (eV)
  ---------------------------------------------------
  free  energy   TOTEN  =       -92.93144185 eV

  energy  without entropy=      -92.93144185  energy(sigma->0) =      -92.93144185
 


--------------------------------------------------------------------------------------------------------


    POTLOK:  cpu time      0.0389: real time      0.0392


--------------------------------------------------------------------------------------------------------


     LOOP+:  cpu time    225.8276: real time    227.8322
 -----------------------------------------------------------------------------
|                                                                             |
|           W    W    AA    RRRRR   N    N  II  N    N   GGGG   !!!           |
|           W    W   A  A   R    R  NN   N  II  NN   N  G    G  !!!           |
|           W    W  A    A  R    R  N N  N  II  N N  N  G       !!!           |
|           W WW W  AAAAAA  RRRRR   N  N N  II  N  N N  G  GGG   !            |
|           WW  WW  A    A  R   R   N   NN  II  N   NN  G    G                |
|           W    W  A    A  R    R  N    N  II  N    N   GGGG   !!!           |
|                                                                             |
|     Tetrahedron method does not include variations of the Fermi             |
|     occupations, so forces and stress will be inaccurate. We suggest        |
|     using a different smearing scheme ISMEAR = 1 or 2 for metals in         |
|     relaxations.                                                            |
|                                                                             |
 -----------------------------------------------------------------------------

    4ORBIT:  cpu time      0.0000: real time      0.0000



 total charge

# of ion       s       p       d       tot
------------------------------------------
    1        0.336   6.294   5.981  12.611
    2        0.333   6.293   6.005  12.631
    3        0.330   6.288   5.977  12.596
    4        0.338   6.298   5.968  12.604
    5        0.337   6.296   5.982  12.615
    6        0.333   6.295   5.980  12.608
    7        0.336   6.294   5.981  12.611
    8        0.333   6.293   6.005  12.631
    9        0.330   6.288   5.977  12.596
   10        0.736   0.617   8.006   9.359
   11        0.742   0.616   8.011   9.369
   12        0.729   0.640   8.004   9.373
--------------------------------------------------
tot          5.213  58.513  77.878 141.604



 magnetization (x)

# of ion       s       p       d       tot
------------------------------------------
    1       -0.015  -0.006  -2.736  -2.757
    2        0.003  -0.012   2.751   2.741
    3        0.011   0.001   2.744   2.756
    4       -0.018  -0.020  -2.746  -2.785
    5        0.015   0.020   2.695   2.730
    6        0.003  -0.015   2.875   2.863
    7       -0.015  -0.006  -2.736  -2.757
    8        0.003  -0.012   2.751   2.741
    9        0.011   0.001   2.744   2.756
   10        0.007   0.015  -0.073  -0.051
   11       -0.008  -0.017   0.061   0.036
   12       -0.041  -0.098   0.412   0.273
--------------------------------------------------
tot         -0.044  -0.148   8.739   8.547
 
 BZINTS: Fermi energy:    9.026187;  156.000000 electrons
         Band energy:-0.175280E+04;  BLOECHL correction:   -0.020891

 total amount of memory used by VASP MPI-rank0   199566. kBytes
=======================================================================

   base      :      30000. kBytes
   nonl-proj :     110020. kBytes
   fftplans  :        955. kBytes
   grid      :       7297. kBytes
   one-center:        373. kBytes
   wavefun   :      50921. kBytes
 
  
  
 General timing and accounting informations for this job:
 ========================================================
  
                  Total CPU time used (sec):      245.188
                            User time (sec):      237.014
                          System time (sec):        8.174
                         Elapsed time (sec):      254.090
  
                   Maximum memory used (kb):      902680.
                   Average memory used (kb):          N/A
  
                          Minor page faults:       215457
                          Major page faults:          127
                 Voluntary context switches:         8096
