 vasp.6.4.3 19Mar24 (build Mar 26 2024 14:05:37) complex                        
  
 executed on             LinuxIFC date 2024.12.16  21:05:01
 running  128 mpi-ranks, on    1 nodes
 distrk:  each k-point on   32 cores,    4 groups
 distr:  one band on NCORE=   1 cores,   32 groups


--------------------------------------------------------------------------------------------------------


 INCAR:
   ALGO = All
   EDIFF = 1e-06
   EDIFFG = -0.01
   ENCUT = 520
   GGA = Pe
   IBRION = 2
   ISIF = 4
   ISMEAR = 1
   ISPIN = 2
   KPAR = 4
   LCHARG = True
   LORBIT = 11
   LREAL = False
   LWAVE = False
   MAGMOM = 1*-2.748 1*2.747 1*2.76 1*-2.771 1*2.735 1*2.868 1*-2.748 1*2.747 1*2.76 1*-0.047 1*0.041 1*0.275
   NELM = 200
   NSW = 100
   PREC = Accurate
   SIGMA = 0.2

 POTCAR:    PAW_PBE Fe_pv 02Aug2007               
 POTCAR:    PAW_PBE Pt 04Feb2005                  
 -----------------------------------------------------------------------------
|                                                                             |
|           W    W    AA    RRRRR   N    N  II  N    N   GGGG   !!!           |
|           W    W   A  A   R    R  NN   N  II  NN   N  G    G  !!!           |
|           W    W  A    A  R    R  N N  N  II  N N  N  G       !!!           |
|           W WW W  AAAAAA  RRRRR   N  N N  II  N  N N  G  GGG   !            |
|           WW  WW  A    A  R   R   N   NN  II  N   NN  G    G                |
|           W    W  A    A  R    R  N    N  II  N    N   GGGG   !!!           |
|                                                                             |
|     For optimal performance we recommend to set                             |
|       NCORE = 2 up to number-of-cores-per-socket                            |
|     NCORE specifies how many cores store one orbital (NPAR=cpu/NCORE).      |
|     This setting can greatly improve the performance of VASP for DFT.       |
|     The default, NCORE=1 might be grossly inefficient on modern             |
|     multi-core architectures or massively parallel machines. Do your        |
|     own testing! More info at https://www.vasp.at/wiki/index.php/NCORE      |
|     Unfortunately you need to use the default for GW and RPA                |
|     calculations (for HF NCORE is supported but not extensively tested      |
|     yet).                                                                   |
|                                                                             |
 -----------------------------------------------------------------------------

 POTCAR:    PAW_PBE Fe_pv 02Aug2007               
   SHA256 =  5d22e414b1f82158bf2c7ecb8b97b28fd0923e48cadc1c3bf74d524558f5dd32 Fe_pv/POTCAR          
   COPYR  = (c) Copyright 02Aug2007 Georg Kresse                                                    
   COPYR  = This file is part of the software VASP. Any use, copying, and all other rights are regul
   COPYR  = If you do not have a valid VASP license, you may not use, copy or distribute this file. 
   VRHFIN =Fe:  3pd7s1                                                                              
   LEXCH  = PE                                                                                      
   EATOM  =  2457.4239 eV,  180.6156 Ry                                                             
                                                                                                    
   TITEL  = PAW_PBE Fe_pv 02Aug2007                                                                 
   LULTRA =        F    use ultrasoft PP ?                                                          
   IUNSCR =        1    unscreen: 0-lin 1-nonlin 2-no                                               
   RPACOR =    1.750    partial core radius                                                         
   POMASS =   55.847; ZVAL   =   14.000    mass and valenz                                          
   RCORE  =    2.200    outmost cutoff radius                                                       
   RWIGS  =    2.200; RWIGS  =    1.164    wigner-seitz radius (au A)                               
   ENMAX  =  293.238; ENMIN  =  219.928 eV                                                          
   ICORE  =        3    local potential                                                             
   LCOR   =        T    correct aug charges                                                         
   LPAW   =        T    paw PP                                                                      
   EAUG   =  578.342                                                                                
   DEXC   =    0.000                                                                                
   RMAX   =    2.249    core radius for proj-oper                                                   
   RAUG   =    1.300    factor for augmentation sphere                                              
   RDEP   =    2.296    radius for radial grids                                                     
   RDEPT  =    1.766    core radius for aug-charge                                                  
                                                                                                    
   Atomic configuration                                                                             
    8 entries                                                                                       
     n  l   j            E        occ.                                                              
     1  0  0.50     -6993.8440   2.0000                                                             
     2  0  0.50      -814.6047   2.0000                                                             
     2  1  1.50      -693.3689   6.0000                                                             
     3  0  0.50       -89.4732   2.0000                                                             
     3  1  1.50       -55.6373   6.0000                                                             
     3  2  2.50        -3.8151   7.0000                                                             
     4  0  0.50        -4.2551   1.0000                                                             
     4  3  2.50        -1.3606   0.0000                                                             
   Description                                                                                      
     l       E           TYP  RCUT    TYP  RCUT                                                     
     1    -55.6372668     23  2.000                                                                 
     1     -5.4423304     23  2.000                                                                 
     2     -3.8151096     23  2.200                                                                 
     2     -5.1756922     23  2.200                                                                 
     0     -4.2550951     23  2.200                                                                 
     0     27.2116520     23  2.200                                                                 
     3     -1.3605826     23  2.200                                                                 
  local pseudopotential read in
  partial core-charges read in
  partial kinetic energy density read in
  atomic valenz-charges read in
  non local Contribution for L=           1  read in
    real space projection operators read in
  non local Contribution for L=           1  read in
    real space projection operators read in
  non local Contribution for L=           2  read in
    real space projection operators read in
  non local Contribution for L=           2  read in
    real space projection operators read in
  non local Contribution for L=           0  read in
    real space projection operators read in
  non local Contribution for L=           0  read in
    real space projection operators read in
    PAW grid and wavefunctions read in
 
   number of l-projection  operators is LMAX  =           6
   number of lm-projection operators is LMMAX =          18
 
 POTCAR:    PAW_PBE Pt 04Feb2005                  
   SHA256 =  3ed90460adef76debcff1cfb73ee1349b515b1a3db03439735b44de3a8db7dc8 Pt/POTCAR             
   COPYR  = (c) Copyright 04Feb2005 Georg Kresse                                                    
   COPYR  = This file is part of the software VASP. Any use, copying, and all other rights are regul
   COPYR  = If you do not have a valid VASP license, you may not use, copy or distribute this file. 
   VRHFIN =Pt: s1d9                                                                                 
   LEXCH  = PE                                                                                      
   EATOM  =   729.1176 eV,   53.5886 Ry                                                             
                                                                                                    
   TITEL  = PAW_PBE Pt 04Feb2005                                                                    
   LULTRA =        F    use ultrasoft PP ?                                                          
   IUNSCR =        1    unscreen: 0-lin 1-nonlin 2-no                                               
   RPACOR =    2.330    partial core radius                                                         
   POMASS =  195.080; ZVAL   =   10.000    mass and valenz                                          
   RCORE  =    2.600    outmost cutoff radius                                                       
   RWIGS  =    2.750; RWIGS  =    1.455    wigner-seitz radius (au A)                               
   ENMAX  =  230.283; ENMIN  =  172.712 eV                                                          
   ICORE  =        3    local potential                                                             
   LCOR   =        T    correct aug charges                                                         
   LPAW   =        T    paw PP                                                                      
   EAUG   =  358.966                                                                                
   DEXC   =    0.000                                                                                
   RMAX   =    2.658    core radius for proj-oper                                                   
   RAUG   =    1.300    factor for augmentation sphere                                              
   RDEP   =    2.761    radius for radial grids                                                     
   RDEPT  =    2.203    core radius for aug-charge                                                  
                                                                                                    
   Atomic configuration                                                                             
   16 entries                                                                                       
     n  l   j            E        occ.                                                              
     1  0  0.50    -78401.1885   2.0000                                                             
     2  0  0.50    -13770.7750   2.0000                                                             
     2  1  1.50    -11931.0468   6.0000                                                             
     3  0  0.50     -3234.7234   2.0000                                                             
     3  1  1.50     -2699.2216   6.0000                                                             
     3  2  2.50     -2119.5714  10.0000                                                             
     4  0  0.50      -695.1528   2.0000                                                             
     4  1  1.50      -519.6034   6.0000                                                             
     4  2  2.50      -306.6786  10.0000                                                             
     4  3  3.50       -70.1041  14.0000                                                             
     5  0  0.50      -101.7747   2.0000                                                             
     5  1  1.50       -55.9873   6.0000                                                             
     5  2  2.50        -6.1423   9.0000                                                             
     6  0  0.50        -5.6573   1.0000                                                             
     6  1  1.50        -6.8029   0.0000                                                             
     5  3  2.50        -1.3606   0.0000                                                             
   Description                                                                                      
     l       E           TYP  RCUT    TYP  RCUT                                                     
     2     -6.1423404     23  2.500                                                                 
     2     -7.5029230     23  2.500                                                                 
     0     -5.6573207     23  2.500                                                                 
     0      0.7416693     23  2.500                                                                 
     1     -2.7211652     23  2.600                                                                 
     1     20.4087390     23  2.600                                                                 
     3     -1.3605826     23  2.500                                                                 
  local pseudopotential read in
  partial core-charges read in
  partial kinetic energy density read in
  atomic valenz-charges read in
  non local Contribution for L=           2  read in
    real space projection operators read in
  non local Contribution for L=           2  read in
    real space projection operators read in
  non local Contribution for L=           0  read in
    real space projection operators read in
  non local Contribution for L=           0  read in
    real space projection operators read in
  non local Contribution for L=           1  read in
    real space projection operators read in
  non local Contribution for L=           1  read in
    real space projection operators read in
    PAW grid and wavefunctions read in
 
   number of l-projection  operators is LMAX  =           6
   number of lm-projection operators is LMMAX =          18
 
  PAW_PBE Fe_pv 02Aug2007               :
 energy of atom  1       EATOM=-2457.4239
 kinetic energy error for atom=    0.0062 (will be added to EATOM!!)
  PAW_PBE Pt 04Feb2005                  :
 energy of atom  2       EATOM= -729.1176
 kinetic energy error for atom=    0.0032 (will be added to EATOM!!)
 
 
 POSCAR: Fe9 Pt3
  positions in direct lattice
  velocities in cartesian coordinates


 exchange-correlation table for PE
   RHO(1)=    0.500       N(1)  =     2000
   RHO(2)=  100.500       N(2)  =     4000
 


--------------------------------------------------------------------------------------------------------


 ion  position               nearest neighbor table
   1  0.000  0.500  0.167-   4 2.64   4 2.64  11 2.66  11 2.66   7 2.68   7 2.68   7 2.68   7 2.68
                            10 2.73  10 2.73   5 2.78   5 2.78
   2  0.000  0.500  0.499-   5 2.62   5 2.62   6 2.68   6 2.68   8 2.68   8 2.68   8 2.68   8 2.68
                            12 2.70  12 2.70  11 2.74  11 2.74
   3  0.000  0.500  0.832-   9 2.68   9 2.68   9 2.68   9 2.68  10 2.69  10 2.69  12 2.70  12 2.70
                             6 2.72   6 2.72   4 2.77   4 2.77
   4  0.500  0.500  0.007-   1 2.64   7 2.64   7 2.64   1 2.64  10 2.68  10 2.68  10 2.68  10 2.68
                             9 2.77   3 2.77   9 2.77   3 2.77
   5  0.500  0.500  0.342-   2 2.62   8 2.62   8 2.62   2 2.62  11 2.68  11 2.68  11 2.68  11 2.68
                             1 2.78   7 2.78   1 2.78   7 2.78
   6  0.500  0.500  0.663-   2 2.68   8 2.68   8 2.68   2 2.68  12 2.68  12 2.68  12 2.68  12 2.68
                             9 2.72   3 2.72   9 2.72   3 2.72
   7  0.500  0.000  0.167-   4 2.64   4 2.64  11 2.66  11 2.66   1 2.68   1 2.68   1 2.68   1 2.68
                            10 2.73  10 2.73   5 2.78   5 2.78
   8  0.500  0.000  0.499-   5 2.62   5 2.62   6 2.68   6 2.68   2 2.68   2 2.68   2 2.68   2 2.68
                            12 2.70  12 2.70  11 2.74  11 2.74
   9  0.500  0.000  0.832-   3 2.68   3 2.68   3 2.68   3 2.68  10 2.69  10 2.69  12 2.70  12 2.70
                             6 2.72   6 2.72   4 2.77   4 2.77
  10  0.000  0.000  0.997-   4 2.68   4 2.68   4 2.68   4 2.68   3 2.69   9 2.69   9 2.69   3 2.69
                             1 2.73   7 2.73   7 2.73   1 2.73
  11  0.000  0.000  0.329-   1 2.66   7 2.66   1 2.66   7 2.66   5 2.68   5 2.68   5 2.68   5 2.68
                             2 2.74   2 2.74   8 2.74   8 2.74
  12  0.000  0.000  0.666-   6 2.68   6 2.68   6 2.68   6 2.68   2 2.70   8 2.70   8 2.70   2 2.70
                             3 2.70   3 2.70   9 2.70   9 2.70
 
  LATTYP: Found a simple tetragonal cell.
 ALAT       =     3.7901499150
 C/A-ratio  =     3.0488701128
  
  Lattice vectors:
  
 A1 = (   3.7901499150,   0.0000000000,   0.0000000000)
 A2 = (   0.0000000000,   3.7901499150,   0.0000000000)
 A3 = (   0.0000000000,   0.0000000000,  11.5556747989)


Analysis of symmetry for initial positions (statically):
=====================================================================
 Subroutine PRICEL returns:
 Original cell was already a primitive cell.
 

 Routine SETGRP: Setting up the symmetry group for a 
 simple tetragonal supercell.


 Subroutine GETGRP returns: Found  8 space group operations
 (whereof  8 operations were pure point group operations)
 out of a pool of 16 trial point group operations.


The static configuration has the point symmetry C_4v.


Analysis of symmetry for dynamics (positions and initial velocities):
=====================================================================
 Subroutine PRICEL returns:
 Original cell was already a primitive cell.
 

 Routine SETGRP: Setting up the symmetry group for a 
 simple tetragonal supercell.


 Subroutine GETGRP returns: Found  8 space group operations
 (whereof  8 operations were pure point group operations)
 out of a pool of 16 trial point group operations.


The dynamic configuration has the point symmetry C_4v.


Analysis of structural, dynamic, and magnetic symmetry:
=====================================================================
 Subroutine PRICEL returns:
 Original cell was already a primitive cell.
 

 Routine SETGRP: Setting up the symmetry group for a 
 simple tetragonal supercell.


 Subroutine GETGRP returns: Found  8 space group operations
 (whereof  8 operations were pure point group operations)
 out of a pool of 16 trial point group operations.


The overall configuration has the point symmetry C_4v.


 Subroutine INISYM returns: Found  8 space group operations
 (whereof  8 operations are pure point group operations),
 and found     1 'primitive' translations


----------------------------------------------------------------------------------------

                                     Primitive cell                                     

  volume of cell :     166.0000

  direct lattice vectors                    reciprocal lattice vectors
     3.790149915  0.000000000  0.000000000     0.263841806  0.000000000  0.000000000
     0.000000000  3.790149915  0.000000000     0.000000000  0.263841806  0.000000000
     0.000000000  0.000000000 11.555674799     0.000000000  0.000000000  0.086537569

  length of vectors
     3.790149915  3.790149915 11.555674799     0.263841806  0.263841806  0.086537569

  position of ions in fractional coordinates (direct lattice)
     0.000000000  0.500000000  0.166643487
     0.000000000  0.500000000  0.499393668
     0.000000000  0.500000000  0.832062322
     0.500000000  0.500000000  0.007146473
     0.500000000  0.500000000  0.342454666
     0.500000000  0.500000000  0.663069850
     0.500000000  0.000000000  0.166643487
     0.500000000  0.000000000  0.499393668
     0.500000000  0.000000000  0.832062322
     0.000000000  0.000000000  0.997036110
     0.000000000  0.000000000  0.328505938
     0.000000000  0.000000000  0.665588008

  ion indices of the primitive-cell ions
   primitive index   ion index
                 1           1
                 2           2
                 3           3
                 4           4
                 5           5
                 6           6
                 7           7
                 8           8
                 9           9
                10          10
                11          11
                12          12

----------------------------------------------------------------------------------------

 
 
 KPOINTS: pymatgen with grid density = 8800 / numb

Automatic generation of k-mesh.
 Grid dimensions read from file:
 generate k-points for:   13   13    4

 Generating k-lattice:

  Cartesian coordinates                     Fractional coordinates (reciprocal lattice)
     0.020295524  0.000000000  0.000000000     0.076923077  0.000000000  0.000000000
     0.000000000  0.020295524  0.000000000     0.000000000  0.076923077  0.000000000
     0.000000000  0.000000000  0.021634392     0.000000000  0.000000000  0.250000000

  Length of vectors
     0.020295524  0.020295524  0.021634392

  Shift w.r.t. Gamma in fractional coordinates (k-lattice)
     0.000000000  0.000000000  0.000000000

 
 Subroutine IBZKPT returns following result:
 ===========================================
 
 Found     84 irreducible k-points:
 
 Following reciprocal coordinates:
            Coordinates               Weight
  0.000000  0.000000  0.000000      1.000000
  0.076923  0.000000  0.000000      4.000000
  0.153846  0.000000  0.000000      4.000000
  0.230769  0.000000  0.000000      4.000000
  0.307692  0.000000  0.000000      4.000000
  0.384615  0.000000  0.000000      4.000000
  0.461538  0.000000  0.000000      4.000000
  0.076923  0.076923  0.000000      4.000000
  0.153846  0.076923  0.000000      8.000000
  0.230769  0.076923  0.000000      8.000000
  0.307692  0.076923  0.000000      8.000000
  0.384615  0.076923  0.000000      8.000000
  0.461538  0.076923  0.000000      8.000000
  0.153846  0.153846  0.000000      4.000000
  0.230769  0.153846  0.000000      8.000000
  0.307692  0.153846  0.000000      8.000000
  0.384615  0.153846  0.000000      8.000000
  0.461538  0.153846  0.000000      8.000000
  0.230769  0.230769  0.000000      4.000000
  0.307692  0.230769  0.000000      8.000000
  0.384615  0.230769  0.000000      8.000000
  0.461538  0.230769  0.000000      8.000000
  0.307692  0.307692  0.000000      4.000000
  0.384615  0.307692  0.000000      8.000000
  0.461538  0.307692  0.000000      8.000000
  0.384615  0.384615  0.000000      4.000000
  0.461538  0.384615  0.000000      8.000000
  0.461538  0.461538  0.000000      4.000000
  0.000000  0.000000  0.250000      2.000000
  0.076923  0.000000  0.250000      8.000000
  0.153846  0.000000  0.250000      8.000000
  0.230769  0.000000  0.250000      8.000000
  0.307692  0.000000  0.250000      8.000000
  0.384615  0.000000  0.250000      8.000000
  0.461538  0.000000  0.250000      8.000000
  0.076923  0.076923  0.250000      8.000000
  0.153846  0.076923  0.250000     16.000000
  0.230769  0.076923  0.250000     16.000000
  0.307692  0.076923  0.250000     16.000000
  0.384615  0.076923  0.250000     16.000000
  0.461538  0.076923  0.250000     16.000000
  0.153846  0.153846  0.250000      8.000000
  0.230769  0.153846  0.250000     16.000000
  0.307692  0.153846  0.250000     16.000000
  0.384615  0.153846  0.250000     16.000000
  0.461538  0.153846  0.250000     16.000000
  0.230769  0.230769  0.250000      8.000000
  0.307692  0.230769  0.250000     16.000000
  0.384615  0.230769  0.250000     16.000000
  0.461538  0.230769  0.250000     16.000000
  0.307692  0.307692  0.250000      8.000000
  0.384615  0.307692  0.250000     16.000000
  0.461538  0.307692  0.250000     16.000000
  0.384615  0.384615  0.250000      8.000000
  0.461538  0.384615  0.250000     16.000000
  0.461538  0.461538  0.250000      8.000000
  0.000000  0.000000  0.500000      1.000000
  0.076923  0.000000  0.500000      4.000000
  0.153846  0.000000  0.500000      4.000000
  0.230769  0.000000  0.500000      4.000000
  0.307692  0.000000  0.500000      4.000000
  0.384615  0.000000  0.500000      4.000000
  0.461538  0.000000  0.500000      4.000000
  0.076923  0.076923  0.500000      4.000000
  0.153846  0.076923  0.500000      8.000000
  0.230769  0.076923  0.500000      8.000000
  0.307692  0.076923  0.500000      8.000000
  0.384615  0.076923  0.500000      8.000000
  0.461538  0.076923  0.500000      8.000000
  0.153846  0.153846  0.500000      4.000000
  0.230769  0.153846  0.500000      8.000000
  0.307692  0.153846  0.500000      8.000000
  0.384615  0.153846  0.500000      8.000000
  0.461538  0.153846  0.500000      8.000000
  0.230769  0.230769  0.500000      4.000000
  0.307692  0.230769  0.500000      8.000000
  0.384615  0.230769  0.500000      8.000000
  0.461538  0.230769  0.500000      8.000000
  0.307692  0.307692  0.500000      4.000000
  0.384615  0.307692  0.500000      8.000000
  0.461538  0.307692  0.500000      8.000000
  0.384615  0.384615  0.500000      4.000000
  0.461538  0.384615  0.500000      8.000000
  0.461538  0.461538  0.500000      4.000000
 
 Following cartesian coordinates:
            Coordinates               Weight
  0.000000  0.000000  0.000000      1.000000
  0.020296  0.000000  0.000000      4.000000
  0.040591  0.000000  0.000000      4.000000
  0.060887  0.000000  0.000000      4.000000
  0.081182  0.000000  0.000000      4.000000
  0.101478  0.000000  0.000000      4.000000
  0.121773  0.000000  0.000000      4.000000
  0.020296  0.020296  0.000000      4.000000
  0.040591  0.020296  0.000000      8.000000
  0.060887  0.020296  0.000000      8.000000
  0.081182  0.020296  0.000000      8.000000
  0.101478  0.020296  0.000000      8.000000
  0.121773  0.020296  0.000000      8.000000
  0.040591  0.040591  0.000000      4.000000
  0.060887  0.040591  0.000000      8.000000
  0.081182  0.040591  0.000000      8.000000
  0.101478  0.040591  0.000000      8.000000
  0.121773  0.040591  0.000000      8.000000
  0.060887  0.060887  0.000000      4.000000
  0.081182  0.060887  0.000000      8.000000
  0.101478  0.060887  0.000000      8.000000
  0.121773  0.060887  0.000000      8.000000
  0.081182  0.081182  0.000000      4.000000
  0.101478  0.081182  0.000000      8.000000
  0.121773  0.081182  0.000000      8.000000
  0.101478  0.101478  0.000000      4.000000
  0.121773  0.101478  0.000000      8.000000
  0.121773  0.121773  0.000000      4.000000
  0.000000  0.000000  0.021634      2.000000
  0.020296  0.000000  0.021634      8.000000
  0.040591  0.000000  0.021634      8.000000
  0.060887  0.000000  0.021634      8.000000
  0.081182  0.000000  0.021634      8.000000
  0.101478  0.000000  0.021634      8.000000
  0.121773  0.000000  0.021634      8.000000
  0.020296  0.020296  0.021634      8.000000
  0.040591  0.020296  0.021634     16.000000
  0.060887  0.020296  0.021634     16.000000
  0.081182  0.020296  0.021634     16.000000
  0.101478  0.020296  0.021634     16.000000
  0.121773  0.020296  0.021634     16.000000
  0.040591  0.040591  0.021634      8.000000
  0.060887  0.040591  0.021634     16.000000
  0.081182  0.040591  0.021634     16.000000
  0.101478  0.040591  0.021634     16.000000
  0.121773  0.040591  0.021634     16.000000
  0.060887  0.060887  0.021634      8.000000
  0.081182  0.060887  0.021634     16.000000
  0.101478  0.060887  0.021634     16.000000
  0.121773  0.060887  0.021634     16.000000
  0.081182  0.081182  0.021634      8.000000
  0.101478  0.081182  0.021634     16.000000
  0.121773  0.081182  0.021634     16.000000
  0.101478  0.101478  0.021634      8.000000
  0.121773  0.101478  0.021634     16.000000
  0.121773  0.121773  0.021634      8.000000
  0.000000  0.000000  0.043269      1.000000
  0.020296  0.000000  0.043269      4.000000
  0.040591  0.000000  0.043269      4.000000
  0.060887  0.000000  0.043269      4.000000
  0.081182  0.000000  0.043269      4.000000
  0.101478  0.000000  0.043269      4.000000
  0.121773  0.000000  0.043269      4.000000
  0.020296  0.020296  0.043269      4.000000
  0.040591  0.020296  0.043269      8.000000
  0.060887  0.020296  0.043269      8.000000
  0.081182  0.020296  0.043269      8.000000
  0.101478  0.020296  0.043269      8.000000
  0.121773  0.020296  0.043269      8.000000
  0.040591  0.040591  0.043269      4.000000
  0.060887  0.040591  0.043269      8.000000
  0.081182  0.040591  0.043269      8.000000
  0.101478  0.040591  0.043269      8.000000
  0.121773  0.040591  0.043269      8.000000
  0.060887  0.060887  0.043269      4.000000
  0.081182  0.060887  0.043269      8.000000
  0.101478  0.060887  0.043269      8.000000
  0.121773  0.060887  0.043269      8.000000
  0.081182  0.081182  0.043269      4.000000
  0.101478  0.081182  0.043269      8.000000
  0.121773  0.081182  0.043269      8.000000
  0.101478  0.101478  0.043269      4.000000
  0.121773  0.101478  0.043269      8.000000
  0.121773  0.121773  0.043269      4.000000
 


--------------------------------------------------------------------------------------------------------




 Dimension of arrays:
   k-points           NKPTS =     84   k-points in BZ     NKDIM =     84   number of bands    NBANDS=    128
   number of dos      NEDOS =    301   number of ions     NIONS =     12
   non local maximal  LDIM  =      6   non local SUM 2l+1 LMDIM =     18
   total plane-waves  NPLWV =  70560
   max r-space proj   IRMAX =      1   max aug-charges    IRDMAX=  25941
   dimension x,y,z NGX =    28 NGY =   28 NGZ =   90
   dimension x,y,z NGXF=    56 NGYF=   56 NGZF=  180
   support grid    NGXF=    56 NGYF=   56 NGZF=  180
   ions per type =               9   3
   NGX,Y,Z   is equivalent  to a cutoff of  12.28, 12.28, 12.95 a.u.
   NGXF,Y,Z  is equivalent  to a cutoff of  24.56, 24.56, 25.90 a.u.

 SYSTEM =  unknown system                          
 POSCAR =  Fe9 Pt3                                 

 Startparameter for this run:
   NWRITE =      2    write-flag & timer
   PREC   = accura    normal or accurate (medium, high low for compatibility)
   ISTART =      0    job   : 0-new  1-cont  2-samecut
   ICHARG =      2    charge: 1-file 2-atom 10-const
   ISPIN  =      2    spin polarized calculation?
   LNONCOLLINEAR =      F non collinear calculations
   LSORBIT =      F    spin-orbit coupling
   INIWAV =      1    electr: 0-lowe 1-rand  2-diag
   LASPH  =      F    aspherical Exc in radial PAW
 Electronic Relaxation 1
   ENCUT  =  520.0 eV  38.22 Ry    6.18 a.u.   7.05  7.05 21.49*2*pi/ulx,y,z
   ENINI  =  520.0     initial cutoff
   ENAUG  =  578.3 eV  augmentation charge cutoff
   NELM   =    200;   NELMIN=  2; NELMDL=  0     # of ELM steps 
   EDIFF  = 0.1E-05   stopping-criterion for ELM
   LREAL  =      F    real-space projection
   NLSPLINE    = F    spline interpolate recip. space projectors
   LCOMPAT=      F    compatible to vasp.4.4
   GGA_COMPAT  = T    GGA compatible to vasp.4.4-vasp.4.6
   LMAXPAW     = -100 max onsite density
   LMAXMIX     =    2 max onsite mixed and CHGCAR
   VOSKOWN=      0    Vosko Wilk Nusair interpolation
   ROPT   =    0.00000   0.00000
 Ionic relaxation
   EDIFFG = -.1E-01   stopping-criterion for IOM
   NSW    =    100    number of steps for IOM
   NBLOCK =      1;   KBLOCK =    100    inner block; outer block 
   IBRION =      2    ionic relax: 0-MD 1-quasi-New 2-CG
   NFREE  =      1    steps in history (QN), initial steepest desc. (CG)
   ISIF   =      4    stress and relaxation
   IWAVPR =     11    prediction:  0-non 1-charg 2-wave 3-comb
   ISYM   =      2    0-nonsym 1-usesym 2-fastsym
   LCORR  =      T    Harris-Foulkes like correction to forces

   POTIM  = 0.5000    time-step for ionic-motion
   TEIN   =    0.0    initial temperature
   TEBEG  =    0.0;   TEEND  =   0.0 temperature during run
   SMASS  =  -3.00    Nose mass-parameter (am)
   estimated Nose-frequenzy (Omega)   =  0.10E-29 period in steps = 0.13E+47 mass=  -0.328E-27a.u.
   SCALEE = 1.0000    scale energy and forces
   NPACO  =    256;   APACO  = 10.0  distance and # of slots for P.C.
   PSTRESS=    0.0 pullay stress

  Mass of Ions in am
   POMASS =  55.85195.08
  Ionic Valenz
   ZVAL   =  14.00 10.00
  Atomic Wigner-Seitz radii
   RWIGS  =  -1.00 -1.00
  virtual crystal weights 
   VCA    =   1.00  1.00
   NELECT =     156.0000    total number of electrons
   NUPDOWN=      -1.0000    fix difference up-down

 DOS related values:
   EMIN   =  10.00;   EMAX   =-10.00  energy-range for DOS
   EFERMI =   0.00;   METHOD = LEGACY      
   ISMEAR =     1;   SIGMA  =   0.20  broadening in eV -4-tet -1-fermi 0-gaus

 Electronic relaxation 2 (details)
   IALGO  =     58    algorithm
   LDIAG  =      T    sub-space diagonalisation (order eigenvalues)
   LSUBROT=      F    optimize rotation matrix (better conditioning)
   TURBO    =      0    0=normal 1=particle mesh
   IRESTART =      0    0=no restart 2=restart with 2 vectors
   NREBOOT  =      0    no. of reboots
   NMIN     =      0    reboot dimension
   EREF     =   0.00    reference energy to select bands
   IMIX   =      4    mixing-type and parameters
     AMIX     =   0.40;   BMIX     =  1.00
     AMIX_MAG =   1.60;   BMIX_MAG =  1.00
     AMIN     =   0.10
     WC   =   100.;   INIMIX=   1;  MIXPRE=   1;  MAXMIX= -45

 Intra band minimization:
   WEIMIN = 0.0010     energy-eigenvalue tresh-hold
   EBREAK =  0.20E-08  absolut break condition
   DEPER  =   0.30     relativ break condition  

   TIME   =   0.40     timestep for ELM

  volume/ion in A,a.u.               =      13.83        93.35
  Fermi-wavevector in a.u.,A,eV,Ry     =   1.603542  3.030255 34.985298  2.571347
  Thomas-Fermi vector in A             =   2.700188
 
 Write flags
   LWAVE        =      F    write WAVECAR
   LDOWNSAMPLE  =      F    k-point downsampling of WAVECAR
   LCHARG       =      T    write CHGCAR
   LVTOT        =      F    write LOCPOT, total local potential
   LVHAR        =      F    write LOCPOT, Hartree potential only
   WRT_POTENTIAL= false  ! write potential to hdf5 file
   LELF         =      F    write electronic localiz. function (ELF)
   LORBIT       =     11    0 simple, 1 ext, 2 COOP (PROOUT), +10 PAW based schemes


 Dipole corrections
   LMONO      =      F    monopole corrections only (constant potential shift)
   LDIPOL     =      F    correct potential (dipole corrections)
   IDIPOL     =      0    1-x, 2-y, 3-z, 4-all directions 
   EPSILON    =  1.0000000 bulk dielectric constant
   LVACPOTAV  =      F  vacuum potentials using an averaging scheme for the charge density
   VACPOTFLAT =  0.1000000 required flatness to determine vacuum potential
 Exchange correlation treatment:
   GGA     = PE    functional components
   XC_C    = 1    coefficients multiplying the functional components
   LIBXC   =     F    Libxc                    
   VOSKOWN =     0    Vosko Wilk Nusair interpolation
   LHFCALC =     F    Hartree Fock is set to
   LHFONE  =     F    Hartree Fock one center treatment
   AEXX    =    0.0000 exact exchange contribution

 Parameters of functionals:
   PE:
     No parameter
 
 Van der Waals corrections
   IVDW    =     0    specifies the selected vdW correction

 Linear response parameters
   LEPSILON=     F    determine dielectric tensor
   LRPA    =     F    only Hartree local field effects (RPA)
   LNABLA  =     F    use nabla operator in PAW spheres
   LVEL    =     F    velocity operator in full k-point grid
   CSHIFT  =0.1000    complex shift for real part using Kramers Kronig
   OMEGAMAX=  -1.0    maximum frequency
   DEG_THRESHOLD= 0.2000000E-02 threshold for treating states as degnerate
   RTIME   =   -0.100 relaxation time in fs
  (WPLASMAI=    0.000 imaginary part of plasma frequency in eV, 0.658/RTIME)
   DFIELD  = 0.0000000 0.0000000 0.0000000 field for delta impulse in time
 
  Optional k-point grid parameters
   LKPOINTS_OPT  =     F    use optional k-point grid
   KPOINTS_OPT_MODE=     1    mode for optional k-point grid
 
 Orbital magnetization related:
   ORBITALMAG=     F  switch on orbital magnetization
   LCHIMAG   =     F  perturbation theory with respect to B field
   DQ        =  0.001000  dq finite difference perturbation B field
   LLRAUG    =     F  two centre corrections for induced B field
   LBONE     =     F  B-component reconstruction in AE one-centre
   LVGVCALC  =     T  calculate vGv susceptibility
   LVGVAPPL  =     F  apply vGv susceptibility instead of pGv for G=0

 Random number generation:
   RANDOM_GENERATOR = DEFAULT
   PCG_SEED         = not used


--------------------------------------------------------------------------------------------------------


 conjugate gradient relaxation of ions
 charge density and potential will be updated during run
 spin polarized calculation
 Conjugate gradient for all bands (Freysoldt, et al. PRB 79, 241103 (2009))
 preconditioned conjugated gradient                                        
 perform sub-space diagonalisation
    before iterative eigenvector-optimisation
 modified Broyden-mixing scheme, WC =      100.0
 initial mixing is a Kerker type mixing with AMIX =  0.4000 and BMIX =      1.0000
 Hartree-type preconditioning will be used
 using additional bands           50
 reciprocal scheme for non local part
 use partial core corrections
 no Harris-corrections to forces 
 use gradient corrections 
 use of overlap-Matrix (Vanderbilt PP)
 Methfessel and Paxton  Order N= 1 SIGMA  =   0.20


--------------------------------------------------------------------------------------------------------


  energy-cutoff  :      520.00
  volume of cell :      166.00
      direct lattice vectors                 reciprocal lattice vectors
     3.790149915  0.000000000  0.000000000     0.263841806  0.000000000  0.000000000
     0.000000000  3.790149915  0.000000000     0.000000000  0.263841806  0.000000000
     0.000000000  0.000000000 11.555674799     0.000000000  0.000000000  0.086537569

  length of vectors
     3.790149915  3.790149915 11.555674799     0.263841806  0.263841806  0.086537569


 
 k-points in units of 2pi/SCALE and weight: pymatgen with grid density = 8800 / numb
   0.00000000  0.00000000  0.00000000       0.001
   0.02029552  0.00000000  0.00000000       0.006
   0.04059105  0.00000000  0.00000000       0.006
   0.06088657  0.00000000  0.00000000       0.006
   0.08118209  0.00000000  0.00000000       0.006
   0.10147762  0.00000000  0.00000000       0.006
   0.12177314  0.00000000  0.00000000       0.006
   0.02029552  0.02029552  0.00000000       0.006
   0.04059105  0.02029552  0.00000000       0.012
   0.06088657  0.02029552  0.00000000       0.012
   0.08118209  0.02029552  0.00000000       0.012
   0.10147762  0.02029552  0.00000000       0.012
   0.12177314  0.02029552  0.00000000       0.012
   0.04059105  0.04059105  0.00000000       0.006
   0.06088657  0.04059105  0.00000000       0.012
   0.08118209  0.04059105  0.00000000       0.012
   0.10147762  0.04059105  0.00000000       0.012
   0.12177314  0.04059105  0.00000000       0.012
   0.06088657  0.06088657  0.00000000       0.006
   0.08118209  0.06088657  0.00000000       0.012
   0.10147762  0.06088657  0.00000000       0.012
   0.12177314  0.06088657  0.00000000       0.012
   0.08118209  0.08118209  0.00000000       0.006
   0.10147762  0.08118209  0.00000000       0.012
   0.12177314  0.08118209  0.00000000       0.012
   0.10147762  0.10147762  0.00000000       0.006
   0.12177314  0.10147762  0.00000000       0.012
   0.12177314  0.12177314  0.00000000       0.006
   0.00000000  0.00000000  0.02163439       0.003
   0.02029552  0.00000000  0.02163439       0.012
   0.04059105  0.00000000  0.02163439       0.012
   0.06088657  0.00000000  0.02163439       0.012
   0.08118209  0.00000000  0.02163439       0.012
   0.10147762  0.00000000  0.02163439       0.012
   0.12177314  0.00000000  0.02163439       0.012
   0.02029552  0.02029552  0.02163439       0.012
   0.04059105  0.02029552  0.02163439       0.024
   0.06088657  0.02029552  0.02163439       0.024
   0.08118209  0.02029552  0.02163439       0.024
   0.10147762  0.02029552  0.02163439       0.024
   0.12177314  0.02029552  0.02163439       0.024
   0.04059105  0.04059105  0.02163439       0.012
   0.06088657  0.04059105  0.02163439       0.024
   0.08118209  0.04059105  0.02163439       0.024
   0.10147762  0.04059105  0.02163439       0.024
   0.12177314  0.04059105  0.02163439       0.024
   0.06088657  0.06088657  0.02163439       0.012
   0.08118209  0.06088657  0.02163439       0.024
   0.10147762  0.06088657  0.02163439       0.024
   0.12177314  0.06088657  0.02163439       0.024
   0.08118209  0.08118209  0.02163439       0.012
   0.10147762  0.08118209  0.02163439       0.024
   0.12177314  0.08118209  0.02163439       0.024
   0.10147762  0.10147762  0.02163439       0.012
   0.12177314  0.10147762  0.02163439       0.024
   0.12177314  0.12177314  0.02163439       0.012
   0.00000000  0.00000000  0.04326878       0.001
   0.02029552  0.00000000  0.04326878       0.006
   0.04059105  0.00000000  0.04326878       0.006
   0.06088657  0.00000000  0.04326878       0.006
   0.08118209  0.00000000  0.04326878       0.006
   0.10147762  0.00000000  0.04326878       0.006
   0.12177314  0.00000000  0.04326878       0.006
   0.02029552  0.02029552  0.04326878       0.006
   0.04059105  0.02029552  0.04326878       0.012
   0.06088657  0.02029552  0.04326878       0.012
   0.08118209  0.02029552  0.04326878       0.012
   0.10147762  0.02029552  0.04326878       0.012
   0.12177314  0.02029552  0.04326878       0.012
   0.04059105  0.04059105  0.04326878       0.006
   0.06088657  0.04059105  0.04326878       0.012
   0.08118209  0.04059105  0.04326878       0.012
   0.10147762  0.04059105  0.04326878       0.012
   0.12177314  0.04059105  0.04326878       0.012
   0.06088657  0.06088657  0.04326878       0.006
   0.08118209  0.06088657  0.04326878       0.012
   0.10147762  0.06088657  0.04326878       0.012
   0.12177314  0.06088657  0.04326878       0.012
   0.08118209  0.08118209  0.04326878       0.006
   0.10147762  0.08118209  0.04326878       0.012
   0.12177314  0.08118209  0.04326878       0.012
   0.10147762  0.10147762  0.04326878       0.006
   0.12177314  0.10147762  0.04326878       0.012
   0.12177314  0.12177314  0.04326878       0.006
 
 k-points in reciprocal lattice and weights: pymatgen with grid density = 8800 / numb
   0.00000000  0.00000000  0.00000000       0.001
   0.07692308  0.00000000  0.00000000       0.006
   0.15384615  0.00000000  0.00000000       0.006
   0.23076923  0.00000000  0.00000000       0.006
   0.30769231  0.00000000  0.00000000       0.006
   0.38461538  0.00000000  0.00000000       0.006
   0.46153846  0.00000000  0.00000000       0.006
   0.07692308  0.07692308  0.00000000       0.006
   0.15384615  0.07692308  0.00000000       0.012
   0.23076923  0.07692308  0.00000000       0.012
   0.30769231  0.07692308  0.00000000       0.012
   0.38461538  0.07692308  0.00000000       0.012
   0.46153846  0.07692308  0.00000000       0.012
   0.15384615  0.15384615  0.00000000       0.006
   0.23076923  0.15384615  0.00000000       0.012
   0.30769231  0.15384615  0.00000000       0.012
   0.38461538  0.15384615  0.00000000       0.012
   0.46153846  0.15384615  0.00000000       0.012
   0.23076923  0.23076923  0.00000000       0.006
   0.30769231  0.23076923  0.00000000       0.012
   0.38461538  0.23076923  0.00000000       0.012
   0.46153846  0.23076923  0.00000000       0.012
   0.30769231  0.30769231  0.00000000       0.006
   0.38461538  0.30769231  0.00000000       0.012
   0.46153846  0.30769231  0.00000000       0.012
   0.38461538  0.38461538  0.00000000       0.006
   0.46153846  0.38461538  0.00000000       0.012
   0.46153846  0.46153846  0.00000000       0.006
   0.00000000  0.00000000  0.25000000       0.003
   0.07692308  0.00000000  0.25000000       0.012
   0.15384615  0.00000000  0.25000000       0.012
   0.23076923  0.00000000  0.25000000       0.012
   0.30769231  0.00000000  0.25000000       0.012
   0.38461538  0.00000000  0.25000000       0.012
   0.46153846  0.00000000  0.25000000       0.012
   0.07692308  0.07692308  0.25000000       0.012
   0.15384615  0.07692308  0.25000000       0.024
   0.23076923  0.07692308  0.25000000       0.024
   0.30769231  0.07692308  0.25000000       0.024
   0.38461538  0.07692308  0.25000000       0.024
   0.46153846  0.07692308  0.25000000       0.024
   0.15384615  0.15384615  0.25000000       0.012
   0.23076923  0.15384615  0.25000000       0.024
   0.30769231  0.15384615  0.25000000       0.024
   0.38461538  0.15384615  0.25000000       0.024
   0.46153846  0.15384615  0.25000000       0.024
   0.23076923  0.23076923  0.25000000       0.012
   0.30769231  0.23076923  0.25000000       0.024
   0.38461538  0.23076923  0.25000000       0.024
   0.46153846  0.23076923  0.25000000       0.024
   0.30769231  0.30769231  0.25000000       0.012
   0.38461538  0.30769231  0.25000000       0.024
   0.46153846  0.30769231  0.25000000       0.024
   0.38461538  0.38461538  0.25000000       0.012
   0.46153846  0.38461538  0.25000000       0.024
   0.46153846  0.46153846  0.25000000       0.012
   0.00000000  0.00000000  0.50000000       0.001
   0.07692308  0.00000000  0.50000000       0.006
   0.15384615  0.00000000  0.50000000       0.006
   0.23076923  0.00000000  0.50000000       0.006
   0.30769231  0.00000000  0.50000000       0.006
   0.38461538  0.00000000  0.50000000       0.006
   0.46153846  0.00000000  0.50000000       0.006
   0.07692308  0.07692308  0.50000000       0.006
   0.15384615  0.07692308  0.50000000       0.012
   0.23076923  0.07692308  0.50000000       0.012
   0.30769231  0.07692308  0.50000000       0.012
   0.38461538  0.07692308  0.50000000       0.012
   0.46153846  0.07692308  0.50000000       0.012
   0.15384615  0.15384615  0.50000000       0.006
   0.23076923  0.15384615  0.50000000       0.012
   0.30769231  0.15384615  0.50000000       0.012
   0.38461538  0.15384615  0.50000000       0.012
   0.46153846  0.15384615  0.50000000       0.012
   0.23076923  0.23076923  0.50000000       0.006
   0.30769231  0.23076923  0.50000000       0.012
   0.38461538  0.23076923  0.50000000       0.012
   0.46153846  0.23076923  0.50000000       0.012
   0.30769231  0.30769231  0.50000000       0.006
   0.38461538  0.30769231  0.50000000       0.012
   0.46153846  0.30769231  0.50000000       0.012
   0.38461538  0.38461538  0.50000000       0.006
   0.46153846  0.38461538  0.50000000       0.012
   0.46153846  0.46153846  0.50000000       0.006
 
 position of ions in fractional coordinates (direct lattice) 
   0.00000000  0.50000000  0.16664349
   0.00000000  0.50000000  0.49939367
   0.00000000  0.50000000  0.83206232
   0.50000000  0.50000000  0.00714647
   0.50000000  0.50000000  0.34245467
   0.50000000  0.50000000  0.66306985
   0.50000000  0.00000000  0.16664349
   0.50000000  0.00000000  0.49939367
   0.50000000  0.00000000  0.83206232
   0.00000000  0.00000000  0.99703611
   0.00000000  0.00000000  0.32850594
   0.00000000  0.00000000  0.66558801
 
 position of ions in cartesian coordinates  (Angst):
   0.00000000  1.89507496  1.92567795
   0.00000000  1.89507496  5.77083082
   0.00000000  1.89507496  9.61504161
   1.89507496  1.89507496  0.08258232
   1.89507496  1.89507496  3.95729476
   1.89507496  1.89507496  7.66221956
   1.89507496  0.00000000  1.92567795
   1.89507496  0.00000000  5.77083082
   1.89507496  0.00000000  9.61504161
   0.00000000  0.00000000 11.52142505
   0.00000000  0.00000000  3.79610779
   0.00000000  0.00000000  7.69131857
 


--------------------------------------------------------------------------------------------------------


 k-point     1 :   0.0000 0.0000 0.0000  plane waves:    4415
 k-point     2 :   0.0769 0.0000 0.0000  plane waves:    4434
 k-point     3 :   0.1538 0.0000 0.0000  plane waves:    4446
 k-point     4 :   0.2308 0.0000 0.0000  plane waves:    4452
 k-point     5 :   0.3077 0.0000 0.0000  plane waves:    4472
 k-point     6 :   0.3846 0.0000 0.0000  plane waves:    4480
 k-point     7 :   0.4615 0.0000 0.0000  plane waves:    4508
 k-point     8 :   0.0769 0.0769 0.0000  plane waves:    4450
 k-point     9 :   0.1538 0.0769 0.0000  plane waves:    4456
 k-point    10 :   0.2308 0.0769 0.0000  plane waves:    4460
 k-point    11 :   0.3077 0.0769 0.0000  plane waves:    4468
 k-point    12 :   0.3846 0.0769 0.0000  plane waves:    4466
 k-point    13 :   0.4615 0.0769 0.0000  plane waves:    4472
 k-point    14 :   0.1538 0.1538 0.0000  plane waves:    4470
 k-point    15 :   0.2308 0.1538 0.0000  plane waves:    4456
 k-point    16 :   0.3077 0.1538 0.0000  plane waves:    4469
 k-point    17 :   0.3846 0.1538 0.0000  plane waves:    4478
 k-point    18 :   0.4615 0.1538 0.0000  plane waves:    4482
 k-point    19 :   0.2308 0.2308 0.0000  plane waves:    4482
 k-point    20 :   0.3077 0.2308 0.0000  plane waves:    4473
 k-point    21 :   0.3846 0.2308 0.0000  plane waves:    4491
 k-point    22 :   0.4615 0.2308 0.0000  plane waves:    4487
 k-point    23 :   0.3077 0.3077 0.0000  plane waves:    4474
 k-point    24 :   0.3846 0.3077 0.0000  plane waves:    4480
 k-point    25 :   0.4615 0.3077 0.0000  plane waves:    4481
 k-point    26 :   0.3846 0.3846 0.0000  plane waves:    4478
 k-point    27 :   0.4615 0.3846 0.0000  plane waves:    4469
 k-point    28 :   0.4615 0.4615 0.0000  plane waves:    4466
 k-point    29 :   0.0000 0.0000 0.2500  plane waves:    4415
 k-point    30 :   0.0769 0.0000 0.2500  plane waves:    4437
 k-point    31 :   0.1538 0.0000 0.2500  plane waves:    4441
 k-point    32 :   0.2308 0.0000 0.2500  plane waves:    4449
 k-point    33 :   0.3077 0.0000 0.2500  plane waves:    4465
 k-point    34 :   0.3846 0.0000 0.2500  plane waves:    4464
 k-point    35 :   0.4615 0.0000 0.2500  plane waves:    4475
 k-point    36 :   0.0769 0.0769 0.2500  plane waves:    4435
 k-point    37 :   0.1538 0.0769 0.2500  plane waves:    4442
 k-point    38 :   0.2308 0.0769 0.2500  plane waves:    4461
 k-point    39 :   0.3077 0.0769 0.2500  plane waves:    4469
 k-point    40 :   0.3846 0.0769 0.2500  plane waves:    4471
 k-point    41 :   0.4615 0.0769 0.2500  plane waves:    4482
 k-point    42 :   0.1538 0.1538 0.2500  plane waves:    4453
 k-point    43 :   0.2308 0.1538 0.2500  plane waves:    4469
 k-point    44 :   0.3077 0.1538 0.2500  plane waves:    4469
 k-point    45 :   0.3846 0.1538 0.2500  plane waves:    4480
 k-point    46 :   0.4615 0.1538 0.2500  plane waves:    4479
 k-point    47 :   0.2308 0.2308 0.2500  plane waves:    4477
 k-point    48 :   0.3077 0.2308 0.2500  plane waves:    4465
 k-point    49 :   0.3846 0.2308 0.2500  plane waves:    4489
 k-point    50 :   0.4615 0.2308 0.2500  plane waves:    4486
 k-point    51 :   0.3077 0.3077 0.2500  plane waves:    4474
 k-point    52 :   0.3846 0.3077 0.2500  plane waves:    4485
 k-point    53 :   0.4615 0.3077 0.2500  plane waves:    4493
 k-point    54 :   0.3846 0.3846 0.2500  plane waves:    4489
 k-point    55 :   0.4615 0.3846 0.2500  plane waves:    4481
 k-point    56 :   0.4615 0.4615 0.2500  plane waves:    4474
 k-point    57 :   0.0000 0.0000 0.5000  plane waves:    4394
 k-point    58 :   0.0769 0.0000 0.5000  plane waves:    4422
 k-point    59 :   0.1538 0.0000 0.5000  plane waves:    4428
 k-point    60 :   0.2308 0.0000 0.5000  plane waves:    4456
 k-point    61 :   0.3077 0.0000 0.5000  plane waves:    4476
 k-point    62 :   0.3846 0.0000 0.5000  plane waves:    4474
 k-point    63 :   0.4615 0.0000 0.5000  plane waves:    4466
 k-point    64 :   0.0769 0.0769 0.5000  plane waves:    4430
 k-point    65 :   0.1538 0.0769 0.5000  plane waves:    4434
 k-point    66 :   0.2308 0.0769 0.5000  plane waves:    4450
 k-point    67 :   0.3077 0.0769 0.5000  plane waves:    4472
 k-point    68 :   0.3846 0.0769 0.5000  plane waves:    4478
 k-point    69 :   0.4615 0.0769 0.5000  plane waves:    4472
 k-point    70 :   0.1538 0.1538 0.5000  plane waves:    4444
 k-point    71 :   0.2308 0.1538 0.5000  plane waves:    4462
 k-point    72 :   0.3077 0.1538 0.5000  plane waves:    4474
 k-point    73 :   0.3846 0.1538 0.5000  plane waves:    4486
 k-point    74 :   0.4615 0.1538 0.5000  plane waves:    4480
 k-point    75 :   0.2308 0.2308 0.5000  plane waves:    4454
 k-point    76 :   0.3077 0.2308 0.5000  plane waves:    4474
 k-point    77 :   0.3846 0.2308 0.5000  plane waves:    4474
 k-point    78 :   0.4615 0.2308 0.5000  plane waves:    4492
 k-point    79 :   0.3077 0.3077 0.5000  plane waves:    4480
 k-point    80 :   0.3846 0.3077 0.5000  plane waves:    4474
 k-point    81 :   0.4615 0.3077 0.5000  plane waves:    4478
 k-point    82 :   0.3846 0.3846 0.5000  plane waves:    4470
 k-point    83 :   0.4615 0.3846 0.5000  plane waves:    4474
 k-point    84 :   0.4615 0.4615 0.5000  plane waves:    4486

 maximum and minimum number of plane-waves per node :      4508     4394

 maximum number of plane-waves:      4508
 maximum index in each direction: 
   IXMAX=    7   IYMAX=    7   IZMAX=   21
   IXMIN=   -7   IYMIN=   -7   IZMIN=  -21


 serial   3D FFT for wavefunctions
 parallel 3D FFT for charge:
    minimum data exchange during FFTs selected (reduces bandwidth)


 total amount of memory used by VASP MPI-rank0   301408. kBytes
=======================================================================

   base      :      30000. kBytes
   nonl-proj :     110020. kBytes
   fftplans  :        955. kBytes
   grid      :       7297. kBytes
   one-center:        373. kBytes
   wavefun   :     152763. kBytes
 
     INWAV:  cpu time      0.0000: real time      0.0000
 Broyden mixing: mesh for mixing (old mesh)
   NGX = 15   NGY = 15   NGZ = 43
  (NGX  = 56   NGY  = 56   NGZ  =180)
  gives a total of   9675 points

 initial charge density was supplied:
 charge density of overlapping atoms calculated
 number of electron     156.0000000 magnetization       8.6190000
 charge density for first step will be calculated from the start-wavefunctions


--------------------------------------------------------------------------------------------------------


 Maximum index for augmentation-charges         1056 (set IRDMAX)


--------------------------------------------------------------------------------------------------------


 First call to EWALD:  gamma=   0.323
 Maximum number of real-space cells 4x 4x 2
 Maximum number of reciprocal cells 2x 2x 5

    FEWALD:  cpu time      0.0020: real time      0.0020


--------------------------------------- Ionic step        1  -------------------------------------------




--------------------------------------- Iteration      1(   1)  ---------------------------------------


    POTLOK:  cpu time      0.0356: real time      0.0362
    SETDIJ:  cpu time      0.0094: real time      0.0097
    TRIAL :  cpu time      6.2741: real time      6.3188
    CORREC:  cpu time      0.0038: real time      0.0039
    --------------------------------------------
      LOOP:  cpu time      6.4052: real time      6.5045

 eigenvalue-minimisations  : 43008
 total energy-change (2. order) : 0.1771605E+04  (-0.9194105E+04)
 number of electron     156.0000000 magnetization       8.6190000
 augmentation part      156.0000000 magnetization       8.6190000

 Free energy of the ion-electron system (eV)
  ---------------------------------------------------
  alpha Z        PSCENC =      1025.24174436
  Ewald energy   TEWEN  =    -17710.61923267
  -Hartree energ DENC   =     -6192.91176081
  -exchange      EXHF   =         0.00000000
  -V(xc)+E(xc)   XCENC  =       654.81015039
  PAW double counting   =     20093.65663588   -20817.55210826
  entropy T*S    EENTRO =        -0.00130501
  eigenvalues    EBANDS =       414.87789425
  atomic energy  EATOM  =     24304.10294433
  ---------------------------------------------------
  free energy    TOTEN  =      1771.60496244 eV

  energy without entropy =     1771.60626745  energy(sigma->0) =     1771.60539744


--------------------------------------------------------------------------------------------------------




--------------------------------------- Iteration      1(   2)  ---------------------------------------


    TRIAL :  cpu time      6.1624: real time      6.2060
    CORREC:  cpu time      0.0026: real time      0.0026
    --------------------------------------------
      LOOP:  cpu time      6.1726: real time      6.2305

 eigenvalue-minimisations  : 43008
 total energy-change (2. order) :-0.1766054E+04  (-0.1677716E+04)
 number of electron     156.0000000 magnetization       8.6190000
 augmentation part      156.0000000 magnetization       8.6190000

 Free energy of the ion-electron system (eV)
  ---------------------------------------------------
  alpha Z        PSCENC =      1025.24174436
  Ewald energy   TEWEN  =    -17710.61923267
  -Hartree energ DENC   =     -6192.91176081
  -exchange      EXHF   =         0.00000000
  -V(xc)+E(xc)   XCENC  =       654.81015039
  PAW double counting   =     20093.65663588   -20817.55210826
  entropy T*S    EENTRO =        -0.00229086
  eigenvalues    EBANDS =     -1351.17476084
  atomic energy  EATOM  =     24304.10294433
  ---------------------------------------------------
  free energy    TOTEN  =         5.55132151 eV

  energy without entropy =        5.55361237  energy(sigma->0) =        5.55208513


--------------------------------------------------------------------------------------------------------




--------------------------------------- Iteration      1(   3)  ---------------------------------------


    TRIAL :  cpu time      7.3768: real time      7.4284
    CORREC:  cpu time      0.0025: real time      0.0025
    --------------------------------------------
      LOOP:  cpu time      7.3872: real time      7.4532

 eigenvalue-minimisations  : 50848
 total energy-change (2. order) :-0.1084458E+03  (-0.1070284E+03)
 number of electron     156.0000000 magnetization       8.6190000
 augmentation part      156.0000000 magnetization       8.6190000

 Free energy of the ion-electron system (eV)
  ---------------------------------------------------
  alpha Z        PSCENC =      1025.24174436
  Ewald energy   TEWEN  =    -17710.61923267
  -Hartree energ DENC   =     -6192.91176081
  -exchange      EXHF   =         0.00000000
  -V(xc)+E(xc)   XCENC  =       654.81015039
  PAW double counting   =     20093.65663588   -20817.55210826
  entropy T*S    EENTRO =        -0.00179523
  eigenvalues    EBANDS =     -1459.62109304
  atomic energy  EATOM  =     24304.10294433
  ---------------------------------------------------
  free energy    TOTEN  =      -102.89451507 eV

  energy without entropy =     -102.89271984  energy(sigma->0) =     -102.89391666


--------------------------------------------------------------------------------------------------------




--------------------------------------- Iteration      1(   4)  ---------------------------------------


    TRIAL :  cpu time      6.5714: real time      6.6183
    CORREC:  cpu time      0.0024: real time      0.0025
    --------------------------------------------
      LOOP:  cpu time      6.5828: real time      6.6428

 eigenvalue-minimisations  : 45824
 total energy-change (2. order) :-0.1636886E+01  (-0.1636566E+01)
 number of electron     156.0000000 magnetization       8.6190000
 augmentation part      156.0000000 magnetization       8.6190000

 Free energy of the ion-electron system (eV)
  ---------------------------------------------------
  alpha Z        PSCENC =      1025.24174436
  Ewald energy   TEWEN  =    -17710.61923267
  -Hartree energ DENC   =     -6192.91176081
  -exchange      EXHF   =         0.00000000
  -V(xc)+E(xc)   XCENC  =       654.81015039
  PAW double counting   =     20093.65663588   -20817.55210826
  entropy T*S    EENTRO =        -0.00167303
  eigenvalues    EBANDS =     -1461.25810162
  atomic energy  EATOM  =     24304.10294433
  ---------------------------------------------------
  free energy    TOTEN  =      -104.53140145 eV

  energy without entropy =     -104.52972842  energy(sigma->0) =     -104.53084377


--------------------------------------------------------------------------------------------------------




--------------------------------------- Iteration      1(   5)  ---------------------------------------


    TRIAL :  cpu time      7.7776: real time      7.8301
    CORREC:  cpu time      0.0026: real time      0.0027
    CHARGE:  cpu time      0.1968: real time      0.1987
    --------------------------------------------
      LOOP:  cpu time      7.9844: real time      8.0537

 eigenvalue-minimisations  : 52992
 total energy-change (2. order) :-0.3390658E-01  (-0.3390556E-01)
 number of electron     156.0000001 magnetization       7.6627589
 augmentation part       79.2719637 magnetization       5.4722658

 Free energy of the ion-electron system (eV)
  ---------------------------------------------------
  alpha Z        PSCENC =      1025.24174436
  Ewald energy   TEWEN  =    -17710.61923267
  -Hartree energ DENC   =     -6192.91176081
  -exchange      EXHF   =         0.00000000
  -V(xc)+E(xc)   XCENC  =       654.81015039
  PAW double counting   =     20093.65663588   -20817.55210826
  entropy T*S    EENTRO =        -0.00167313
  eigenvalues    EBANDS =     -1461.29200811
  atomic energy  EATOM  =     24304.10294433
  ---------------------------------------------------
  free energy    TOTEN  =      -104.56530803 eV

  energy without entropy =     -104.56363491  energy(sigma->0) =     -104.56475032


--------------------------------------------------------------------------------------------------------




--------------------------------------- Iteration      1(   6)  ---------------------------------------


    POTLOK:  cpu time      0.0246: real time      0.0249
    SETDIJ:  cpu time      0.0085: real time      0.0086
    TRIAL :  cpu time      2.9053: real time      2.9341
    CORREC:  cpu time      1.1411: real time      1.1527
    CHARGE:  cpu time      0.1846: real time      0.1856
    --------------------------------------------
      LOOP:  cpu time      4.2721: real time      4.3276

 eigenvalue-minimisations  :     0
 total energy-change (2. order) : 0.6037507E+02  (-0.1335582E+02)
 number of electron     156.0000001 magnetization       8.0040273
 augmentation part       79.9856883 magnetization       5.6284104

 Free energy of the ion-electron system (eV)
  ---------------------------------------------------
  alpha Z        PSCENC =      1025.24174436
  Ewald energy   TEWEN  =    -17710.61923267
  -Hartree energ DENC   =     -5039.43613078
  -exchange      EXHF   =         0.00000000
  -V(xc)+E(xc)   XCENC  =       607.48085485
  PAW double counting   =     20523.20540502   -21183.43234287
  entropy T*S    EENTRO =         0.00097833
  eigenvalues    EBANDS =     -2570.73180253
  atomic energy  EATOM  =     24304.10294433
  ---------------------------------------------------
  free energy    TOTEN  =       -44.19023342 eV

  energy without entropy =      -44.19121175  energy(sigma->0) =      -44.19055953


--------------------------------------------------------------------------------------------------------




--------------------------------------- Iteration      1(   7)  ---------------------------------------


    POTLOK:  cpu time      0.0228: real time      0.0230
    SETDIJ:  cpu time      0.0086: real time      0.0087
    TRIAL :  cpu time      3.0418: real time      3.0712
    CORREC:  cpu time      1.1399: real time      1.1513
    CHARGE:  cpu time      0.1814: real time      0.1824
    --------------------------------------------
      LOOP:  cpu time      4.4038: real time      4.4599

 eigenvalue-minimisations  :     0
 total energy-change (2. order) :-0.1759518E+02  (-0.1566397E+02)
 number of electron     156.0000001 magnetization       8.3871491
 augmentation part       82.4096608 magnetization       5.9824438

 Free energy of the ion-electron system (eV)
  ---------------------------------------------------
  alpha Z        PSCENC =      1025.24174436
  Ewald energy   TEWEN  =    -17710.61923267
  -Hartree energ DENC   =     -5122.69299074
  -exchange      EXHF   =         0.00000000
  -V(xc)+E(xc)   XCENC  =       611.59954001
  PAW double counting   =     20631.63082071   -21309.87073597
  entropy T*S    EENTRO =         0.00012726
  eigenvalues    EBANDS =     -2491.17847751
  atomic energy  EATOM  =     24304.10294433
  ---------------------------------------------------
  free energy    TOTEN  =       -61.78540915 eV

  energy without entropy =      -61.78553641  energy(sigma->0) =      -61.78545157


--------------------------------------------------------------------------------------------------------




--------------------------------------- Iteration      1(   8)  ---------------------------------------


    POTLOK:  cpu time      0.0232: real time      0.0234
    SETDIJ:  cpu time      0.0083: real time      0.0083
    TRIAL :  cpu time      3.0706: real time      3.1002
    CORREC:  cpu time      1.1211: real time      1.1325
    CHARGE:  cpu time      0.1751: real time      0.1759
    --------------------------------------------
      LOOP:  cpu time      4.4220: real time      4.4645

 eigenvalue-minimisations  :     0
 total energy-change (2. order) :-0.1664206E+02  (-0.8498764E+01)
 number of electron     156.0000001 magnetization       8.0692157
 augmentation part       84.1535523 magnetization       5.9498388

 Free energy of the ion-electron system (eV)
  ---------------------------------------------------
  alpha Z        PSCENC =      1025.24174436
  Ewald energy   TEWEN  =    -17710.61923267
  -Hartree energ DENC   =     -5474.81242566
  -exchange      EXHF   =         0.00000000
  -V(xc)+E(xc)   XCENC  =       626.13081485
  PAW double counting   =     21174.93696093   -21916.78195313
  entropy T*S    EENTRO =         0.01435450
  eigenvalues    EBANDS =     -2106.62644464
  atomic energy  EATOM  =     24304.10294433
  ---------------------------------------------------
  free energy    TOTEN  =       -78.42746437 eV

  energy without entropy =      -78.44181887  energy(sigma->0) =      -78.43224920


--------------------------------------------------------------------------------------------------------




--------------------------------------- Iteration      1(   9)  ---------------------------------------


    POTLOK:  cpu time      0.0232: real time      0.0235
    SETDIJ:  cpu time      0.0077: real time      0.0077
    TRIAL :  cpu time      2.8961: real time      2.9246
    CORREC:  cpu time      1.1513: real time      1.1627
    CHARGE:  cpu time      0.1706: real time      0.1715
    --------------------------------------------
      LOOP:  cpu time      4.2574: real time      4.3133

 eigenvalue-minimisations  :     0
 total energy-change (2. order) :-0.7758221E+01  (-0.1287596E+01)
 number of electron     156.0000001 magnetization       7.9406670
 augmentation part       84.4454991 magnetization       5.9103335

 Free energy of the ion-electron system (eV)
  ---------------------------------------------------
  alpha Z        PSCENC =      1025.24174436
  Ewald energy   TEWEN  =    -17710.61923267
  -Hartree energ DENC   =     -5740.82496206
  -exchange      EXHF   =         0.00000000
  -V(xc)+E(xc)   XCENC  =       636.88684017
  PAW double counting   =     21691.45786582   -22479.73727659
  entropy T*S    EENTRO =         0.02451380
  eigenvalues    EBANDS =     -1812.70796331
  atomic energy  EATOM  =     24304.10294433
  ---------------------------------------------------
  free energy    TOTEN  =       -86.18568545 eV

  energy without entropy =      -86.21019925  energy(sigma->0) =      -86.19385672


--------------------------------------------------------------------------------------------------------




--------------------------------------- Iteration      1(  10)  ---------------------------------------


    POTLOK:  cpu time      0.0230: real time      0.0232
    SETDIJ:  cpu time      0.0081: real time      0.0082
    TRIAL :  cpu time      3.0082: real time      3.0368
    CORREC:  cpu time      1.1336: real time      1.1451
    CHARGE:  cpu time      0.1712: real time      0.1722
    --------------------------------------------
      LOOP:  cpu time      4.3519: real time      4.4081

 eigenvalue-minimisations  :     0
 total energy-change (2. order) :-0.1146866E+01  (-0.1584913E+01)
 number of electron     156.0000000 magnetization       8.1904041
 augmentation part       84.7209766 magnetization       6.0701727

 Free energy of the ion-electron system (eV)
  ---------------------------------------------------
  alpha Z        PSCENC =      1025.24174436
  Ewald energy   TEWEN  =    -17710.61923267
  -Hartree energ DENC   =     -5784.75152007
  -exchange      EXHF   =         0.00000000
  -V(xc)+E(xc)   XCENC  =       638.67277007
  PAW double counting   =     21782.40583157   -22575.22900611
  entropy T*S    EENTRO =         0.02952950
  eigenvalues    EBANDS =     -1767.18059700
  atomic energy  EATOM  =     24304.10294433
  ---------------------------------------------------
  free energy    TOTEN  =       -87.33255173 eV

  energy without entropy =      -87.36208123  energy(sigma->0) =      -87.34239489


--------------------------------------------------------------------------------------------------------




--------------------------------------- Iteration      1(  11)  ---------------------------------------


    POTLOK:  cpu time      0.0232: real time      0.0234
    SETDIJ:  cpu time      0.0082: real time      0.0083
    TRIAL :  cpu time      2.9213: real time      2.9495
    CORREC:  cpu time      1.1363: real time      1.1478
    CHARGE:  cpu time      0.1670: real time      0.1679
    --------------------------------------------
      LOOP:  cpu time      4.2646: real time      4.3194

 eigenvalue-minimisations  :     0
 total energy-change (2. order) :-0.1667717E+01  (-0.8532406E+00)
 number of electron     156.0000000 magnetization       8.4428669
 augmentation part       84.7767612 magnetization       6.2230693

 Free energy of the ion-electron system (eV)
  ---------------------------------------------------
  alpha Z        PSCENC =      1025.24174436
  Ewald energy   TEWEN  =    -17710.61923267
  -Hartree energ DENC   =     -5816.60039995
  -exchange      EXHF   =         0.00000000
  -V(xc)+E(xc)   XCENC  =       640.22774304
  PAW double counting   =     21857.64397999   -22648.25800867
  entropy T*S    EENTRO =         0.03057614
  eigenvalues    EBANDS =     -1740.76856866
  atomic energy  EATOM  =     24304.10294433
  ---------------------------------------------------
  free energy    TOTEN  =       -89.00026872 eV

  energy without entropy =      -89.03084486  energy(sigma->0) =      -89.01046077


--------------------------------------------------------------------------------------------------------




--------------------------------------- Iteration      1(  12)  ---------------------------------------


    POTLOK:  cpu time      0.0229: real time      0.0231
    SETDIJ:  cpu time      0.0079: real time      0.0080
    TRIAL :  cpu time      3.1225: real time      3.1528
    CORREC:  cpu time      1.1373: real time      1.1489
    CHARGE:  cpu time      0.1675: real time      0.1686
    --------------------------------------------
      LOOP:  cpu time      4.4665: real time      4.5249

 eigenvalue-minimisations  :     0
 total energy-change (2. order) :-0.1009695E+01  (-0.1462008E+01)
 number of electron     156.0000000 magnetization       8.4770846
 augmentation part       84.7424209 magnetization       6.2796274

 Free energy of the ion-electron system (eV)
  ---------------------------------------------------
  alpha Z        PSCENC =      1025.24174436
  Ewald energy   TEWEN  =    -17710.61923267
  -Hartree energ DENC   =     -5815.65164959
  -exchange      EXHF   =         0.00000000
  -V(xc)+E(xc)   XCENC  =       640.45874222
  PAW double counting   =     21864.24953214   -22649.25481830
  entropy T*S    EENTRO =         0.03878556
  eigenvalues    EBANDS =     -1748.56780265
  atomic energy  EATOM  =     24304.10294433
  ---------------------------------------------------
  free energy    TOTEN  =       -90.00996402 eV

  energy without entropy =      -90.04874959  energy(sigma->0) =      -90.02289254


--------------------------------------------------------------------------------------------------------




--------------------------------------- Iteration      1(  13)  ---------------------------------------


    POTLOK:  cpu time      0.0235: real time      0.0237
    SETDIJ:  cpu time      0.0074: real time      0.0075
    TRIAL :  cpu time      2.9373: real time      2.9662
    CORREC:  cpu time      1.1362: real time      1.1478
    CHARGE:  cpu time      0.1662: real time      0.1671
    --------------------------------------------
      LOOP:  cpu time      4.2933: real time      4.3352

 eigenvalue-minimisations  :     0
 total energy-change (2. order) :-0.1541375E+01  (-0.3351901E+00)
 number of electron     156.0000000 magnetization       8.3125479
 augmentation part       84.7298634 magnetization       6.2026006

 Free energy of the ion-electron system (eV)
  ---------------------------------------------------
  alpha Z        PSCENC =      1025.24174436
  Ewald energy   TEWEN  =    -17710.61923267
  -Hartree energ DENC   =     -5795.16316428
  -exchange      EXHF   =         0.00000000
  -V(xc)+E(xc)   XCENC  =       640.09003365
  PAW double counting   =     21831.60075670   -22601.35810612
  entropy T*S    EENTRO =         0.03891483
  eigenvalues    EBANDS =     -1785.48510065
  atomic energy  EATOM  =     24304.10294433
  ---------------------------------------------------
  free energy    TOTEN  =       -91.55133912 eV

  energy without entropy =      -91.59025395  energy(sigma->0) =      -91.56431073


--------------------------------------------------------------------------------------------------------




--------------------------------------- Iteration      1(  14)  ---------------------------------------


    POTLOK:  cpu time      0.0235: real time      0.0238
    SETDIJ:  cpu time      0.0078: real time      0.0078
    TRIAL :  cpu time      3.0488: real time      3.0784
    CORREC:  cpu time      1.2567: real time      1.2686
    CHARGE:  cpu time      0.1662: real time      0.1671
    --------------------------------------------
      LOOP:  cpu time      4.5112: real time      4.5684

 eigenvalue-minimisations  :     0
 total energy-change (2. order) :-0.3228553E+00  (-0.3167897E+00)
 number of electron     156.0000000 magnetization       8.3069145
 augmentation part       84.7689143 magnetization       6.2178671

 Free energy of the ion-electron system (eV)
  ---------------------------------------------------
  alpha Z        PSCENC =      1025.24174436
  Ewald energy   TEWEN  =    -17710.61923267
  -Hartree energ DENC   =     -5792.00206130
  -exchange      EXHF   =         0.00000000
  -V(xc)+E(xc)   XCENC  =       640.01570442
  PAW double counting   =     21822.04279096   -22587.47238411
  entropy T*S    EENTRO =         0.02600421
  eigenvalues    EBANDS =     -1793.22261520
  atomic energy  EATOM  =     24304.10294433
  ---------------------------------------------------
  free energy    TOTEN  =       -91.87419437 eV

  energy without entropy =      -91.90019858  energy(sigma->0) =      -91.88286244


--------------------------------------------------------------------------------------------------------




--------------------------------------- Iteration      1(  15)  ---------------------------------------


    POTLOK:  cpu time      0.0231: real time      0.0234
    SETDIJ:  cpu time      0.0081: real time      0.0081
    TRIAL :  cpu time      2.8942: real time      2.9231
    CORREC:  cpu time      1.1288: real time      1.1407
    CHARGE:  cpu time      0.1646: real time      0.1655
    --------------------------------------------
      LOOP:  cpu time      4.2272: real time      4.2838

 eigenvalue-minimisations  :     0
 total energy-change (2. order) :-0.3153415E+00  (-0.3556524E+00)
 number of electron     155.9999999 magnetization       8.5172996
 augmentation part       84.8370505 magnetization       6.3532295

 Free energy of the ion-electron system (eV)
  ---------------------------------------------------
  alpha Z        PSCENC =      1025.24174436
  Ewald energy   TEWEN  =    -17710.61923267
  -Hartree energ DENC   =     -5805.90534757
  -exchange      EXHF   =         0.00000000
  -V(xc)+E(xc)   XCENC  =       640.47655857
  PAW double counting   =     21817.81976911   -22579.37099473
  entropy T*S    EENTRO =         0.01726441
  eigenvalues    EBANDS =     -1783.96098146
  atomic energy  EATOM  =     24304.10294433
  ---------------------------------------------------
  free energy    TOTEN  =       -92.18953585 eV

  energy without entropy =      -92.20680027  energy(sigma->0) =      -92.19529066


--------------------------------------------------------------------------------------------------------




--------------------------------------- Iteration      1(  16)  ---------------------------------------


    POTLOK:  cpu time      0.0232: real time      0.0234
    SETDIJ:  cpu time      0.0071: real time      0.0071
    TRIAL :  cpu time      3.0126: real time      3.0413
    CORREC:  cpu time      1.1274: real time      1.1390
    CHARGE:  cpu time      0.1634: real time      0.1643
    --------------------------------------------
      LOOP:  cpu time      4.3418: real time      4.3983

 eigenvalue-minimisations  :     0
 total energy-change (2. order) :-0.3332735E+00  (-0.2085269E+00)
 number of electron     155.9999999 magnetization       8.4974586
 augmentation part       84.9099110 magnetization       6.3649672

 Free energy of the ion-electron system (eV)
  ---------------------------------------------------
  alpha Z        PSCENC =      1025.24174436
  Ewald energy   TEWEN  =    -17710.61923267
  -Hartree energ DENC   =     -5825.30586695
  -exchange      EXHF   =         0.00000000
  -V(xc)+E(xc)   XCENC  =       641.18706914
  PAW double counting   =     21822.10981373   -22580.06903312
  entropy T*S    EENTRO =         0.01550278
  eigenvalues    EBANDS =     -1769.18751261
  atomic energy  EATOM  =     24304.10294433
  ---------------------------------------------------
  free energy    TOTEN  =       -92.52280938 eV

  energy without entropy =      -92.53831216  energy(sigma->0) =      -92.52797698


--------------------------------------------------------------------------------------------------------




--------------------------------------- Iteration      1(  17)  ---------------------------------------


    POTLOK:  cpu time      0.0227: real time      0.0230
    SETDIJ:  cpu time      0.0082: real time      0.0082
    TRIAL :  cpu time      3.0240: real time      3.0532
    CORREC:  cpu time      1.1212: real time      1.1331
    CHARGE:  cpu time      0.1624: real time      0.1635
    --------------------------------------------
      LOOP:  cpu time      4.3464: real time      4.4042

 eigenvalue-minimisations  :     0
 total energy-change (2. order) :-0.2048385E+00  (-0.5810754E-01)
 number of electron     155.9999999 magnetization       8.4225726
[...]
     61       7.6605      1.00000
     62       7.7333      1.00000
     63       7.9402      1.00000
     64       7.9976      1.00000
     65       8.0946      1.00000
     66       8.2503      1.00000
     67       8.3014      1.00000
     68       8.3344      1.00001
     69       8.3859      1.00004
     70       8.4406      1.00017
     71       8.5462      1.00210
     72       8.6373      1.01079
     73       8.6763      1.01814
     74       8.8528      0.99733
     75       8.8720      0.97162
     76       9.0104      0.53434
     77       9.0257      0.47263
     78       9.0872      0.23029
     79       9.3504     -0.02049
     80       9.3913     -0.01217
     81       9.4318     -0.00635
     82       9.5072     -0.00152
     83       9.7401     -0.00000
     84       9.9768     -0.00000
     85      10.0297     -0.00000
     86      10.0755     -0.00000
     87      10.2190     -0.00000
     88      10.4892     -0.00000
     89      10.6028     -0.00000
     90      10.6675     -0.00000
     91      10.7498     -0.00000
     92      10.7922     -0.00000
     93      11.0261     -0.00000
     94      11.1123     -0.00000
     95      11.2900     -0.00000
     96      11.4533     -0.00000
     97      11.6448     -0.00000
     98      11.7275     -0.00000
     99      12.1158     -0.00000
    100      13.7066      0.00000
    101      15.4906      0.00000
    102      15.5258      0.00000
    103      15.5916      0.00000
    104      16.5775      0.00000
    105      16.7048      0.00000
    106      17.1746      0.00000
    107      17.4302      0.00000
    108      17.7633      0.00000
    109      17.9271      0.00000
    110      18.3115      0.00000
    111      18.3784      0.00000
    112      22.4130      0.00000
    113      22.6348      0.00000
    114      23.0798      0.00000
    115      23.1379      0.00000
    116      23.3279      0.00000
    117      23.4984      0.00000
    118      24.1775      0.00000
    119      24.3295      0.00000
    120      26.1745      0.00000
    121      26.2048      0.00000
    122      26.2553      0.00000
    123      26.6369      0.00000
    124      27.0583      0.00000
    125      27.3843      0.00000
    126      27.5820      0.00000
    127      27.8291      0.00000
    128      28.2556      0.00000


--------------------------------------------------------------------------------------------------------


 soft charge-density along one line, spin component           1
         0         1         2         3         4         5         6         7         8         9
 total charge-density along one line
 
 soft charge-density along one line, spin component           2
         0         1         2         3         4         5         6         7         8         9
 total charge-density along one line
 
 pseudopotential strength for first ion, spin component:           1
-43.507   0.000  -0.000   6.991  -0.000   0.000  -0.000   0.004
  0.000 -43.542   0.000  -0.000   7.005  -0.000  -0.000   0.000
 -0.000   0.000 -43.462   0.000  -0.000   6.972   0.000  -0.000
  6.991  -0.000   0.000   5.830  -0.000   0.000   0.000  -0.002
 -0.000   7.005  -0.000  -0.000   5.825  -0.000   0.000  -0.000
  0.000  -0.000   6.972   0.000  -0.000   5.834  -0.000   0.000
 -0.000  -0.000   0.000   0.000   0.000  -0.000  -0.917   0.000
  0.004   0.000  -0.000  -0.002  -0.000   0.000   0.000  -0.928
 -0.000   0.006   0.000   0.000  -0.001  -0.000   0.000   0.000
 -0.000  -0.000  -0.002   0.000   0.000   0.004   0.000  -0.000
 -0.000  -0.003   0.000   0.000   0.003   0.000   0.000  -0.000
 -0.000  -0.000   0.000   0.000   0.000  -0.000  -1.449   0.000
  0.004   0.000  -0.000  -0.002  -0.000   0.000   0.000  -1.460
 -0.000   0.006   0.000   0.000  -0.001   0.000   0.000   0.000
 -0.000  -0.000  -0.002   0.000   0.000   0.004   0.000  -0.000
 -0.000  -0.003   0.000   0.000   0.003   0.000   0.000  -0.000
 -0.000   0.001   0.000  -0.000   0.002   0.000   0.000  -0.000
 -0.000   0.003   0.000  -0.000   0.005   0.000   0.000  -0.000
 pseudopotential strength for first ion, spin component:           2
-45.843   0.000   0.000   7.973  -0.000  -0.000   0.000   0.006
  0.000 -45.908   0.000  -0.000   7.998  -0.000   0.000   0.000
  0.000   0.000 -45.702  -0.000  -0.000   7.915   0.000   0.000
  7.973  -0.000  -0.000   5.549  -0.000  -0.000  -0.000  -0.004
 -0.000   7.998  -0.000  -0.000   5.543  -0.000  -0.000  -0.000
 -0.000  -0.000   7.915  -0.000  -0.000   5.561  -0.000  -0.000
  0.000   0.000   0.000  -0.000  -0.000  -0.000  -2.713   0.000
  0.006   0.000   0.000  -0.004  -0.000  -0.000   0.000  -2.892
 -0.000   0.016   0.000   0.000  -0.007  -0.000  -0.000   0.000
  0.000  -0.000   0.028  -0.000   0.000  -0.012   0.000   0.000
 -0.000   0.011   0.000   0.000  -0.004   0.000   0.000  -0.000
  0.000   0.000   0.000   0.000  -0.000  -0.000  -3.216   0.000
  0.006   0.000   0.000  -0.004  -0.000  -0.000   0.000  -3.392
 -0.000   0.016   0.000   0.000  -0.007   0.000  -0.000   0.000
  0.000   0.000   0.027  -0.000   0.000  -0.012   0.000   0.000
 -0.000   0.011   0.000   0.000  -0.004   0.000   0.000  -0.000
 -0.000  -0.006   0.000  -0.000   0.004  -0.000  -0.000  -0.000
 -0.000  -0.015  -0.000  -0.000   0.010   0.000  -0.000  -0.000
 total augmentation occupancy for first ion, spin component:           1
  1.992   0.000   0.000  -0.028   0.000   0.000   0.000  -0.007   0.000   0.000   0.000   0.000   0.007   0.000   0.000   0.000
  0.000   1.992   0.000   0.000  -0.029  -0.000   0.000   0.000  -0.005   0.000   0.003   0.000   0.000   0.005   0.000  -0.003
  0.000   0.000   1.992   0.000   0.000  -0.028   0.000   0.000   0.000  -0.001   0.000   0.000   0.000   0.000   0.001  -0.000
 -0.028   0.000   0.000   0.166   0.000  -0.000   0.000  -0.021   0.000   0.000   0.000   0.000   0.028   0.000   0.000   0.000
  0.000  -0.029   0.000   0.000   0.165   0.000   0.000   0.000  -0.013   0.000   0.021   0.000   0.000   0.005   0.000  -0.034
  0.000  -0.000  -0.028  -0.000   0.000   0.146  -0.000   0.000   0.000   0.017   0.000  -0.000   0.000   0.000  -0.045   0.000
  0.000   0.000   0.000   0.000   0.000  -0.000   2.932   0.000   0.000   0.000  -0.000  -1.503   0.000   0.000   0.000  -0.000
 -0.007   0.000   0.000  -0.021   0.000   0.000   0.000   2.954  -0.000   0.000   0.000   0.000  -1.848   0.000   0.000  -0.000
  0.000  -0.005   0.000   0.000  -0.013   0.000   0.000  -0.000   3.374   0.000   0.219   0.000   0.000  -1.846   0.000  -0.131
  0.000   0.000  -0.001   0.000   0.000   0.017   0.000   0.000   0.000   2.723   0.000   0.000   0.000   0.000  -1.376   0.000
  0.000   0.003   0.000   0.000   0.021   0.000  -0.000   0.000   0.219   0.000   3.005   0.000   0.000  -0.130   0.000  -1.622
  0.000   0.000   0.000   0.000   0.000  -0.000  -1.503   0.000   0.000   0.000   0.000   1.527   0.000   0.000   0.000  -0.000
  0.007   0.000   0.000   0.028   0.000   0.000   0.000  -1.848   0.000   0.000   0.000   0.000   1.992   0.000   0.000  -0.000
  0.000   0.005   0.000   0.000   0.005   0.000   0.000   0.000  -1.846   0.000  -0.130   0.000   0.000   1.618   0.000   0.047
  0.000   0.000   0.001   0.000   0.000  -0.045   0.000   0.000   0.000  -1.376   0.000   0.000   0.000   0.000   1.402  -0.000
  0.000  -0.003  -0.000   0.000  -0.034   0.000  -0.000  -0.000  -0.131   0.000  -1.622  -0.000  -0.000   0.047  -0.000   1.501
  0.000  -0.000  -0.000   0.000  -0.001   0.000   0.000   0.000  -0.117   0.000   0.178   0.000   0.000   0.069   0.000  -0.128
  0.000   0.001   0.000   0.000   0.000  -0.000   0.000   0.000   0.012   0.000  -0.012   0.000   0.000  -0.006   0.000   0.007
 total augmentation occupancy for first ion, spin component:           2
  0.002  -0.000   0.000   0.009   0.000   0.000   0.000   0.002   0.000   0.000   0.000   0.000  -0.002   0.000   0.000  -0.000
 -0.000   0.002   0.000   0.000   0.008   0.000   0.000   0.000   0.004   0.000   0.005  -0.000   0.000  -0.005   0.000  -0.005
  0.000   0.000   0.002   0.000   0.000   0.009   0.000   0.000   0.000   0.011  -0.000  -0.000  -0.000   0.000  -0.011  -0.000
  0.009   0.000   0.000  -0.007   0.000   0.000   0.000   0.021   0.000  -0.000   0.000   0.000  -0.017   0.000   0.000   0.000
  0.000   0.008   0.000   0.000  -0.003  -0.000   0.000   0.000  -0.002   0.000  -0.034  -0.000   0.000  -0.010   0.000   0.012
  0.000   0.000   0.009   0.000  -0.000  -0.002   0.000   0.000   0.000  -0.062   0.000   0.000  -0.000   0.000   0.010   0.000
  0.000   0.000   0.000   0.000   0.000   0.000  -2.369   0.000   0.000   0.000   0.000   1.097   0.000   0.000   0.000   0.000
  0.002   0.000   0.000   0.021   0.000   0.000   0.000  -2.259   0.000   0.000   0.000   0.000   0.832  -0.000  -0.000  -0.000
  0.000   0.004   0.000   0.000  -0.002   0.000   0.000   0.000  -2.815   0.000  -0.107   0.000   0.000   1.262   0.000   0.086
  0.000   0.000   0.011  -0.000   0.000  -0.062   0.000   0.000   0.000  -2.127   0.000   0.000   0.000   0.000   0.828   0.000
  0.000   0.005  -0.000   0.000  -0.034   0.000   0.000   0.000  -0.107   0.000  -2.503  -0.000   0.000   0.087   0.000   0.977
  0.000  -0.000  -0.000   0.000  -0.000   0.000   1.097   0.000   0.000   0.000  -0.000  -0.334  -0.000   0.000   0.000   0.000
 -0.002   0.000  -0.000  -0.017   0.000  -0.000   0.000   0.832   0.000   0.000   0.000  -0.000  -0.062  -0.000   0.000   0.000
  0.000  -0.005   0.000   0.000  -0.010   0.000   0.000  -0.000   1.262   0.000   0.087   0.000  -0.000  -0.458   0.000  -0.090
  0.000   0.000  -0.011   0.000   0.000   0.010   0.000  -0.000   0.000   0.828   0.000   0.000   0.000   0.000  -0.111   0.000
 -0.000  -0.005  -0.000   0.000   0.012   0.000   0.000  -0.000   0.086   0.000   0.977   0.000   0.000  -0.090   0.000  -0.197
  0.000  -0.001   0.000   0.000  -0.018   0.000   0.000   0.000   0.025  -0.000  -0.055   0.000   0.000  -0.035   0.000   0.046
  0.000   0.000  -0.000   0.000  -0.000   0.000   0.000   0.000  -0.008   0.000   0.006   0.000   0.000   0.002   0.000  -0.001


------------------------ aborting loop because EDIFF is reached ----------------------------------------





 total charge

# of ion       s       p       d       tot
------------------------------------------
    1        0.336   6.294   5.983  12.612
    2        0.333   6.293   6.004  12.631
    3        0.330   6.288   5.977  12.596
    4        0.338   6.298   5.970  12.605
    5        0.337   6.296   5.982  12.614
    6        0.333   6.295   5.980  12.608
    7        0.336   6.294   5.983  12.612
    8        0.333   6.293   6.004  12.631
    9        0.330   6.288   5.977  12.596
   10        0.736   0.616   8.007   9.359
   11        0.742   0.616   8.011   9.369
   12        0.729   0.640   8.005   9.373
--------------------------------------------------
tot          5.213  58.511  77.881 141.606



 magnetization (x)

# of ion       s       p       d       tot
------------------------------------------
    1       -0.015  -0.005  -2.727  -2.748
    2        0.003  -0.012   2.756   2.747
    3        0.011   0.002   2.748   2.760
    4       -0.018  -0.020  -2.733  -2.771
    5        0.015   0.020   2.700   2.735
    6        0.003  -0.015   2.880   2.868
    7       -0.015  -0.005  -2.727  -2.748
    8        0.003  -0.012   2.756   2.747
    9        0.011   0.002   2.748   2.760
   10        0.007   0.016  -0.070  -0.047
   11       -0.008  -0.017   0.065   0.041
   12       -0.041  -0.097   0.413   0.275
--------------------------------------------------
tot         -0.043  -0.147   8.809   8.620
 
    FORLOC:  cpu time      0.0009: real time      0.0010
    FORNL :  cpu time      0.7748: real time      0.7790
    STRESS:  cpu time      4.7081: real time      4.7444
    FORCOR:  cpu time      0.0221: real time      0.0222
    OFIELD:  cpu time      0.0003: real time      0.0003

  FORCE on cell =-STRESS in cart. coord.  units (eV):
  Direction    XX          YY          ZZ          XY          YZ          ZX
  --------------------------------------------------------------------------------------
  Alpha Z  1025.24174  1025.24174  1025.24174
  Ewald   -5889.40481 -5889.40481 -5931.83376     0.00000    -0.00000    -0.00000
  Hartree  1960.11650  1960.11650  1921.64449    -0.00000    -0.00000    -0.00000
  E(xc)    -942.03186  -942.03186  -941.97751    -0.00000    -0.00000     0.00000
  Local     933.35820   933.35820  1022.10094     0.00000     0.00000     0.00000
  n-local  -224.11740  -239.01530  -232.64241    13.20659     0.07712     0.13131
  augment  1442.23573  1442.23573  1437.82117     0.00000     0.00000     0.00000
  Kinetic  1698.00565  1683.94746  1688.59545     2.26255     0.07891    -0.11318
  Fock        0.00000     0.00000     0.00000     0.00000     0.00000     0.00000
  -------------------------------------------------------------------------------------
  Total     -11.07430   -11.07430   -11.04989     0.00000    -0.00000     0.00000
  in kB    -106.88547  -106.88547  -106.64989     0.00000    -0.00000     0.00000
  external pressure =     -106.81 kB  Pullay stress =        0.00 kB


 VOLUME and BASIS-vectors are now :
 -----------------------------------------------------------------------------
  energy-cutoff  :      520.00
  volume of cell :      166.00
      direct lattice vectors                 reciprocal lattice vectors
     3.790149915  0.000000000  0.000000000     0.263841806  0.000000000  0.000000000
     0.000000000  3.790149915  0.000000000     0.000000000  0.263841806  0.000000000
     0.000000000  0.000000000 11.555674799     0.000000000  0.000000000  0.086537569

  length of vectors
     3.790149915  3.790149915 11.555674799     0.263841806  0.263841806  0.086537569


 FORCES acting on ions:
    Electron-Ion                     Ewald-Force                    Non-Local-Force
 -----------------------------------------------------------------------------------------------
   -.561E-13 0.607E-12 0.397E+01   0.431E-13 -.276E-14 -.494E+01   -.132E-19 -.316E-18 0.964E+00
   -.682E-13 0.112E-11 -.174E+02   0.514E-13 0.824E-14 0.177E+02   0.101E-18 -.156E-19 -.262E+00
   -.693E-13 0.841E-12 -.377E+02   0.321E-13 0.165E-13 0.364E+02   0.100E-18 0.536E-18 0.123E+01
   0.107E-11 0.582E-11 0.860E+02   0.188E-14 -.150E-13 -.832E+02   0.602E-18 -.319E-18 -.288E+01
   0.110E-11 -.478E-11 0.106E+03   0.422E-13 0.370E-13 -.104E+03   -.122E-18 0.127E-17 -.277E+01
   0.113E-11 -.480E-11 -.793E+02   0.621E-13 0.824E-14 0.796E+02   -.126E-18 -.196E-18 -.253E+00
   0.111E-11 0.675E-12 0.397E+01   -.332E-13 0.109E-13 -.494E+01   0.258E-18 -.106E-19 0.964E+00
   0.112E-11 0.161E-12 -.174E+02   -.312E-13 -.636E-14 0.177E+02   -.842E-19 -.370E-19 -.262E+00
   0.111E-11 -.585E-12 -.377E+02   -.407E-13 0.758E-14 0.364E+02   -.840E-18 -.589E-19 0.123E+01
   -.356E-13 -.609E-13 0.166E+02   -.319E-13 -.233E-14 -.171E+02   0.256E-18 0.548E-18 0.487E+00
   -.360E-13 0.139E-12 0.143E+02   -.564E-13 -.180E-13 -.146E+02   -.488E-18 -.148E-17 0.370E+00
   -.302E-13 -.787E-13 -.408E+02   -.591E-13 -.124E-13 0.406E+02   -.262E-18 -.159E-18 0.266E+00
 -----------------------------------------------------------------------------------------------
   0.638E-11 -.939E-12 0.905E+00   -.196E-13 0.317E-13 0.284E-13   -.621E-18 -.236E-18 -.905E+00
 
 
 POSITION                                       TOTAL-FORCE (eV/Angst)
 -----------------------------------------------------------------------------------
      0.00000      1.89507      1.92568         0.000000      0.000000     -0.006489
      0.00000      1.89507      5.77083         0.000000     -0.000000      0.000143
      0.00000      1.89507      9.61504         0.000000      0.000000      0.006796
      1.89507      1.89507      0.08258        -0.000000      0.000000     -0.000635
      1.89507      1.89507      3.95729         0.000000     -0.000000     -0.008077
      1.89507      1.89507      7.66222        -0.000000      0.000000      0.009442
      1.89507      0.00000      1.92568         0.000000     -0.000000     -0.006489
      1.89507      0.00000      5.77083        -0.000000     -0.000000      0.000143
      1.89507      0.00000      9.61504         0.000000     -0.000000      0.006796
      0.00000      0.00000     11.52143         0.000000     -0.000000     -0.001434
      0.00000      0.00000      3.79611        -0.000000     -0.000000     -0.001265
      0.00000      0.00000      7.69132         0.000000     -0.000000      0.001069
 -----------------------------------------------------------------------------------
    total drift:                                0.000000     -0.000000     -0.000304


--------------------------------------------------------------------------------------------------------



  FREE ENERGIE OF THE ION-ELECTRON SYSTEM (eV)
  ---------------------------------------------------
  free  energy   TOTEN  =       -92.93034625 eV

  energy  without entropy=      -92.93579219  energy(sigma->0) =      -92.93216157
 


--------------------------------------------------------------------------------------------------------


    POTLOK:  cpu time      0.0480: real time      0.0483


--------------------------------------------------------------------------------------------------------




--------------------------------------------------------------------------------------------------------


  
 reached required accuracy - stopping structural energy minimisation
     LOOP+:  cpu time    229.4148: real time    232.3031
    4ORBIT:  cpu time      0.0000: real time      0.0000



 total charge

# of ion       s       p       d       tot
------------------------------------------
    1        0.336   6.294   5.983  12.612
    2        0.333   6.293   6.004  12.631
    3        0.330   6.288   5.977  12.596
    4        0.338   6.298   5.970  12.605
    5        0.337   6.296   5.982  12.614
    6        0.333   6.295   5.980  12.608
    7        0.336   6.294   5.983  12.612
    8        0.333   6.293   6.004  12.631
    9        0.330   6.288   5.977  12.596
   10        0.736   0.616   8.007   9.359
   11        0.742   0.616   8.011   9.369
   12        0.729   0.640   8.005   9.373
--------------------------------------------------
tot          5.213  58.511  77.881 141.606



 magnetization (x)

# of ion       s       p       d       tot
------------------------------------------
    1       -0.015  -0.005  -2.727  -2.748
    2        0.003  -0.012   2.756   2.747
    3        0.011   0.002   2.748   2.760
    4       -0.018  -0.020  -2.733  -2.771
    5        0.015   0.020   2.700   2.735
    6        0.003  -0.015   2.880   2.868
    7       -0.015  -0.005  -2.727  -2.748
    8        0.003  -0.012   2.756   2.747
    9        0.011   0.002   2.748   2.760
   10        0.007   0.016  -0.070  -0.047
   11       -0.008  -0.017   0.065   0.041
   12       -0.041  -0.097   0.413   0.275
--------------------------------------------------
tot         -0.043  -0.147   8.809   8.620
 

 total amount of memory used by VASP MPI-rank0   301408. kBytes
=======================================================================

   base      :      30000. kBytes
   nonl-proj :     110020. kBytes
   fftplans  :        955. kBytes
   grid      :       7297. kBytes
   one-center:        373. kBytes
   wavefun   :     152763. kBytes
 
  
  
 General timing and accounting informations for this job:
 ========================================================
  
                  Total CPU time used (sec):      249.170
                            User time (sec):      242.245
                          System time (sec):        6.925
                         Elapsed time (sec):      258.754
  
                   Maximum memory used (kb):     1203176.
                   Average memory used (kb):          N/A
  
                          Minor page faults:       179776
                          Major page faults:          131
                 Voluntary context switches:        11413
