       N       E                     dE             d eps       ncg     rms          rms(c)
DAV:   1     0.177071329202E+04    0.17707E+04   -0.84554E+04 43008   0.179E+03
DAV:   2     0.668121434012E+01   -0.17640E+04   -0.16719E+04 43040   0.479E+02
DAV:   3    -0.102484029531E+03   -0.10917E+03   -0.10743E+03 50368   0.127E+02
DAV:   4    -0.104099412838E+03   -0.16154E+01   -0.16149E+01 45952   0.155E+01
DAV:   5    -0.104131448998E+03   -0.32036E-01   -0.32035E-01 52928   0.212E+00    0.372E+01
DAV:   6    -0.101466662362E+03    0.26648E+01   -0.65390E+01 48672   0.517E+01    0.368E+01
DAV:   7    -0.955691712068E+02    0.58975E+01   -0.82170E+01 49376   0.394E+01    0.200E+01
DAV:   8    -0.974694428791E+02   -0.19003E+01   -0.23129E+01 52928   0.226E+01    0.284E+01
DAV:   9    -0.941253956004E+02    0.33440E+01   -0.29269E+01 51808   0.180E+01    0.119E+01
DAV:  10    -0.939049800390E+02    0.22042E+00   -0.33687E+00 49760   0.113E+01    0.119E+01
DAV:  11    -0.936864676953E+02    0.21851E+00   -0.44340E+00 50400   0.101E+01    0.753E+00
DAV:  12    -0.934733992714E+02    0.21307E+00   -0.97315E-01 49792   0.612E+00    0.376E+00
DAV:  13    -0.935205504430E+02   -0.47151E-01   -0.19965E-01 50688   0.407E+00    0.412E+00
DAV:  14    -0.934875850216E+02    0.32965E-01   -0.16589E-01 50816   0.329E+00    0.225E+00
DAV:  15    -0.934797372144E+02    0.78478E-02   -0.54254E-02 51296   0.193E+00    0.711E-01
DAV:  16    -0.934860045629E+02   -0.62673E-02   -0.18435E-02 50112   0.704E-01    0.607E-01
DAV:  17    -0.934859922953E+02    0.12268E-04   -0.30595E-03 50464   0.449E-01    0.288E-01
DAV:  18    -0.934858098838E+02    0.18241E-03   -0.11808E-03 50784   0.255E-01    0.879E-02
DAV:  19    -0.934859163140E+02   -0.10643E-03   -0.17693E-04 52480   0.694E-02    0.519E-02
DAV:  20    -0.934859862617E+02   -0.69948E-04   -0.40160E-05 51488   0.431E-02    0.234E-02
DAV:  21    -0.934860301463E+02   -0.43885E-04   -0.16642E-05 50848   0.196E-02    0.125E-02
DAV:  22    -0.934860412705E+02   -0.11124E-04   -0.16227E-06 36192   0.114E-02    0.646E-03
DAV:  23    -0.934860406561E+02    0.61439E-06   -0.30829E-07 27936   0.487E-03
   1 F= -.93486041E+02 E0= -.93486041E+02  d E =0.000000E+00  mag=    25.5575
