 vasp.6.4.3 19Mar24 (build Mar 26 2024 14:05:37) complex                        
  
 executed on             LinuxIFC date 2024.12.16  07:49:59
 running  128 mpi-ranks, on    1 nodes
 distrk:  each k-point on   32 cores,    4 groups
 distr:  one band on NCORE=   1 cores,   32 groups


--------------------------------------------------------------------------------------------------------


 INCAR:
   ALGO = Normal
   EDIFF = 1e-06
   EDIFFG = -0.01
   ENCUT = 520
   GGA = Pe
   IBRION = -1
   ISIF = 4
   ISMEAR = -5
   ISPIN = 2
   KPAR = 4
   LCHARG = True
   LORBIT = 11
   LREAL = False
   LWAVE = False
   MAGMOM = 1*2.78 1*2.784 1*2.78 1*2.778 2*2.783 1*2.78 1*2.784 1*2.78 3*0.31
   NELM = 200
   NSW = 0
   PREC = Accurate
   SIGMA = 0.2

 POTCAR:    PAW_PBE Fe_pv 02Aug2007               
 POTCAR:    PAW_PBE Pt 04Feb2005                  
 -----------------------------------------------------------------------------
|                                                                             |
|           W    W    AA    RRRRR   N    N  II  N    N   GGGG   !!!           |
|           W    W   A  A   R    R  NN   N  II  NN   N  G    G  !!!           |
|           W    W  A    A  R    R  N N  N  II  N N  N  G       !!!           |
|           W WW W  AAAAAA  RRRRR   N  N N  II  N  N N  G  GGG   !            |
|           WW  WW  A    A  R   R   N   NN  II  N   NN  G    G                |
|           W    W  A    A  R    R  N    N  II  N    N   GGGG   !!!           |
|                                                                             |
|     For optimal performance we recommend to set                             |
|       NCORE = 2 up to number-of-cores-per-socket                            |
|     NCORE specifies how many cores store one orbital (NPAR=cpu/NCORE).      |
|     This setting can greatly improve the performance of VASP for DFT.       |
|     The default, NCORE=1 might be grossly inefficient on modern             |
|     multi-core architectures or massively parallel machines. Do your        |
|     own testing! More info at https://www.vasp.at/wiki/index.php/NCORE      |
|     Unfortunately you need to use the default for GW and RPA                |
|     calculations (for HF NCORE is supported but not extensively tested      |
|     yet).                                                                   |
|                                                                             |
 -----------------------------------------------------------------------------

 POTCAR:    PAW_PBE Fe_pv 02Aug2007               
   SHA256 =  5d22e414b1f82158bf2c7ecb8b97b28fd0923e48cadc1c3bf74d524558f5dd32 Fe_pv/POTCAR          
   COPYR  = (c) Copyright 02Aug2007 Georg Kresse                                                    
   COPYR  = This file is part of the software VASP. Any use, copying, and all other rights are regul
   COPYR  = If you do not have a valid VASP license, you may not use, copy or distribute this file. 
   VRHFIN =Fe:  3pd7s1                                                                              
   LEXCH  = PE                                                                                      
   EATOM  =  2457.4239 eV,  180.6156 Ry                                                             
                                                                                                    
   TITEL  = PAW_PBE Fe_pv 02Aug2007                                                                 
   LULTRA =        F    use ultrasoft PP ?                                                          
   IUNSCR =        1    unscreen: 0-lin 1-nonlin 2-no                                               
   RPACOR =    1.750    partial core radius                                                         
   POMASS =   55.847; ZVAL   =   14.000    mass and valenz                                          
   RCORE  =    2.200    outmost cutoff radius                                                       
   RWIGS  =    2.200; RWIGS  =    1.164    wigner-seitz radius (au A)                               
   ENMAX  =  293.238; ENMIN  =  219.928 eV                                                          
   ICORE  =        3    local potential                                                             
   LCOR   =        T    correct aug charges                                                         
   LPAW   =        T    paw PP                                                                      
   EAUG   =  578.342                                                                                
   DEXC   =    0.000                                                                                
   RMAX   =    2.249    core radius for proj-oper                                                   
   RAUG   =    1.300    factor for augmentation sphere                                              
   RDEP   =    2.296    radius for radial grids                                                     
   RDEPT  =    1.766    core radius for aug-charge                                                  
                                                                                                    
   Atomic configuration                                                                             
    8 entries                                                                                       
     n  l   j            E        occ.                                                              
     1  0  0.50     -6993.8440   2.0000                                                             
     2  0  0.50      -814.6047   2.0000                                                             
     2  1  1.50      -693.3689   6.0000                                                             
     3  0  0.50       -89.4732   2.0000                                                             
     3  1  1.50       -55.6373   6.0000                                                             
     3  2  2.50        -3.8151   7.0000                                                             
     4  0  0.50        -4.2551   1.0000                                                             
     4  3  2.50        -1.3606   0.0000                                                             
   Description                                                                                      
     l       E           TYP  RCUT    TYP  RCUT                                                     
     1    -55.6372668     23  2.000                                                                 
     1     -5.4423304     23  2.000                                                                 
     2     -3.8151096     23  2.200                                                                 
     2     -5.1756922     23  2.200                                                                 
     0     -4.2550951     23  2.200                                                                 
     0     27.2116520     23  2.200                                                                 
     3     -1.3605826     23  2.200                                                                 
  local pseudopotential read in
  partial core-charges read in
  partial kinetic energy density read in
  atomic valenz-charges read in
  non local Contribution for L=           1  read in
    real space projection operators read in
  non local Contribution for L=           1  read in
    real space projection operators read in
  non local Contribution for L=           2  read in
    real space projection operators read in
  non local Contribution for L=           2  read in
    real space projection operators read in
  non local Contribution for L=           0  read in
    real space projection operators read in
  non local Contribution for L=           0  read in
    real space projection operators read in
    PAW grid and wavefunctions read in
 
   number of l-projection  operators is LMAX  =           6
   number of lm-projection operators is LMMAX =          18
 
 POTCAR:    PAW_PBE Pt 04Feb2005                  
   SHA256 =  3ed90460adef76debcff1cfb73ee1349b515b1a3db03439735b44de3a8db7dc8 Pt/POTCAR             
   COPYR  = (c) Copyright 04Feb2005 Georg Kresse                                                    
   COPYR  = This file is part of the software VASP. Any use, copying, and all other rights are regul
   COPYR  = If you do not have a valid VASP license, you may not use, copy or distribute this file. 
   VRHFIN =Pt: s1d9                                                                                 
   LEXCH  = PE                                                                                      
   EATOM  =   729.1176 eV,   53.5886 Ry                                                             
                                                                                                    
   TITEL  = PAW_PBE Pt 04Feb2005                                                                    
   LULTRA =        F    use ultrasoft PP ?                                                          
   IUNSCR =        1    unscreen: 0-lin 1-nonlin 2-no                                               
   RPACOR =    2.330    partial core radius                                                         
   POMASS =  195.080; ZVAL   =   10.000    mass and valenz                                          
   RCORE  =    2.600    outmost cutoff radius                                                       
   RWIGS  =    2.750; RWIGS  =    1.455    wigner-seitz radius (au A)                               
   ENMAX  =  230.283; ENMIN  =  172.712 eV                                                          
   ICORE  =        3    local potential                                                             
   LCOR   =        T    correct aug charges                                                         
   LPAW   =        T    paw PP                                                                      
   EAUG   =  358.966                                                                                
   DEXC   =    0.000                                                                                
   RMAX   =    2.658    core radius for proj-oper                                                   
   RAUG   =    1.300    factor for augmentation sphere                                              
   RDEP   =    2.761    radius for radial grids                                                     
   RDEPT  =    2.203    core radius for aug-charge                                                  
                                                                                                    
   Atomic configuration                                                                             
   16 entries                                                                                       
     n  l   j            E        occ.                                                              
     1  0  0.50    -78401.1885   2.0000                                                             
     2  0  0.50    -13770.7750   2.0000                                                             
     2  1  1.50    -11931.0468   6.0000                                                             
     3  0  0.50     -3234.7234   2.0000                                                             
     3  1  1.50     -2699.2216   6.0000                                                             
     3  2  2.50     -2119.5714  10.0000                                                             
     4  0  0.50      -695.1528   2.0000                                                             
     4  1  1.50      -519.6034   6.0000                                                             
     4  2  2.50      -306.6786  10.0000                                                             
     4  3  3.50       -70.1041  14.0000                                                             
     5  0  0.50      -101.7747   2.0000                                                             
     5  1  1.50       -55.9873   6.0000                                                             
     5  2  2.50        -6.1423   9.0000                                                             
     6  0  0.50        -5.6573   1.0000                                                             
     6  1  1.50        -6.8029   0.0000                                                             
     5  3  2.50        -1.3606   0.0000                                                             
   Description                                                                                      
     l       E           TYP  RCUT    TYP  RCUT                                                     
     2     -6.1423404     23  2.500                                                                 
     2     -7.5029230     23  2.500                                                                 
     0     -5.6573207     23  2.500                                                                 
     0      0.7416693     23  2.500                                                                 
     1     -2.7211652     23  2.600                                                                 
     1     20.4087390     23  2.600                                                                 
     3     -1.3605826     23  2.500                                                                 
  local pseudopotential read in
  partial core-charges read in
  partial kinetic energy density read in
  atomic valenz-charges read in
  non local Contribution for L=           2  read in
    real space projection operators read in
  non local Contribution for L=           2  read in
    real space projection operators read in
  non local Contribution for L=           0  read in
    real space projection operators read in
  non local Contribution for L=           0  read in
    real space projection operators read in
  non local Contribution for L=           1  read in
    real space projection operators read in
  non local Contribution for L=           1  read in
    real space projection operators read in
    PAW grid and wavefunctions read in
 
   number of l-projection  operators is LMAX  =           6
   number of lm-projection operators is LMMAX =          18
 
  PAW_PBE Fe_pv 02Aug2007               :
 energy of atom  1       EATOM=-2457.4239
 kinetic energy error for atom=    0.0062 (will be added to EATOM!!)
  PAW_PBE Pt 04Feb2005                  :
 energy of atom  2       EATOM= -729.1176
 kinetic energy error for atom=    0.0032 (will be added to EATOM!!)
 
 
 POSCAR: Fe9 Pt3
  positions in direct lattice
  velocities in cartesian coordinates


 exchange-correlation table for PE
   RHO(1)=    0.500       N(1)  =     2000
   RHO(2)=  100.500       N(2)  =     4000
 


--------------------------------------------------------------------------------------------------------


 ion  position               nearest neighbor table
   1  0.000  0.500  0.166-   4 2.66  10 2.66  10 2.66   4 2.66   7 2.66   7 2.66   7 2.66   7 2.66
                             5 2.66   5 2.66  11 2.66  11 2.66
   2  0.000  0.500  0.500-   8 2.66   8 2.66   8 2.66   8 2.66  11 2.66  12 2.66  12 2.66  11 2.66
                             5 2.66   6 2.66   5 2.66   6 2.66
   3  0.000  0.500  0.834-   4 2.66  10 2.66  10 2.66   4 2.66   9 2.66   9 2.66   9 2.66   9 2.66
                             6 2.66   6 2.66  12 2.66  12 2.66
   4  0.500  0.500  0.000-   1 2.66   3 2.66   7 2.66   9 2.66   7 2.66   9 2.66   1 2.66   3 2.66
                            10 2.66  10 2.66  10 2.66  10 2.66
   5  0.500  0.500  0.333-  11 2.66  11 2.66  11 2.66  11 2.66   7 2.66   1 2.66   1 2.66   7 2.66
                             8 2.66   2 2.66   8 2.66   2 2.66
   6  0.500  0.500  0.667-  12 2.66  12 2.66  12 2.66  12 2.66   9 2.66   3 2.66   3 2.66   9 2.66
                             2 2.66   8 2.66   2 2.66   8 2.66
   7  0.500  0.000  0.166-   4 2.66  10 2.66   4 2.66  10 2.66   1 2.66   1 2.66   1 2.66   1 2.66
                             5 2.66   5 2.66  11 2.66  11 2.66
   8  0.500  0.000  0.500-   2 2.66   2 2.66   2 2.66   2 2.66  12 2.66  11 2.66  12 2.66  11 2.66
                             6 2.66   5 2.66   5 2.66   6 2.66
   9  0.500  0.000  0.834-   4 2.66  10 2.66   4 2.66  10 2.66   3 2.66   3 2.66   3 2.66   3 2.66
                             6 2.66   6 2.66  12 2.66  12 2.66
  10  0.000  0.000  0.000-   1 2.66   3 2.66   7 2.66   9 2.66   1 2.66   3 2.66   7 2.66   9 2.66
                             4 2.66   4 2.66   4 2.66   4 2.66
  11  0.000  0.000  0.333-   5 2.66   5 2.66   5 2.66   5 2.66   1 2.66   7 2.66   7 2.66   1 2.66
                             2 2.66   2 2.66   8 2.66   8 2.66
  12  0.000  0.000  0.667-   6 2.66   6 2.66   6 2.66   6 2.66   3 2.66   9 2.66   9 2.66   3 2.66
                             2 2.66   8 2.66   8 2.66   2 2.66
 
  LATTYP: Found a simple tetragonal cell.
 ALAT       =     3.7629055179
 C/A-ratio  =     3.0029634145
  
  Lattice vectors:
  
 A1 = (   3.7629055179,   0.0000000000,   0.0000000000)
 A2 = (   0.0000000000,   3.7629055179,   0.0000000000)
 A3 = (   0.0000000000,   0.0000000000,  11.2998676022)


Analysis of symmetry for initial positions (statically):
=====================================================================
 Subroutine PRICEL returns:
 Original cell was already a primitive cell.
 

 Routine SETGRP: Setting up the symmetry group for a 
 simple tetragonal supercell.


 Subroutine GETGRP returns: Found 16 space group operations
 (whereof 16 operations were pure point group operations)
 out of a pool of 16 trial point group operations.


The static configuration has the point symmetry D_4h.


Analysis of symmetry for dynamics (positions and initial velocities):
=====================================================================
 Subroutine PRICEL returns:
 Original cell was already a primitive cell.
 

 Routine SETGRP: Setting up the symmetry group for a 
 simple tetragonal supercell.


 Subroutine GETGRP returns: Found 16 space group operations
 (whereof 16 operations were pure point group operations)
 out of a pool of 16 trial point group operations.


The dynamic configuration has the point symmetry D_4h.


Analysis of structural, dynamic, and magnetic symmetry:
=====================================================================
 Subroutine PRICEL returns:
 Original cell was already a primitive cell.
 

 Routine SETGRP: Setting up the symmetry group for a 
 simple tetragonal supercell.


 Subroutine GETGRP returns: Found 16 space group operations
 (whereof 16 operations were pure point group operations)
 out of a pool of 16 trial point group operations.


The overall configuration has the point symmetry D_4h.


 Subroutine INISYM returns: Found 16 space group operations
 (whereof 16 operations are pure point group operations),
 and found     1 'primitive' translations


----------------------------------------------------------------------------------------

                                     Primitive cell                                     

  volume of cell :     160.0000

  direct lattice vectors                    reciprocal lattice vectors
     3.762905518  0.000000000  0.000000000     0.265752088  0.000000000  0.000000000
     0.000000000  3.762905518  0.000000000     0.000000000  0.265752088  0.000000000
     0.000000000  0.000000000 11.299867602     0.000000000  0.000000000  0.088496612

  length of vectors
     3.762905518  3.762905518 11.299867602     0.265752088  0.265752088  0.088496612

  position of ions in fractional coordinates (direct lattice)
     0.000000000  0.500000000  0.166484995
     0.000000000  0.500000000  0.500000000
     0.000000000  0.500000000  0.833515005
     0.500000000  0.500000000  0.000000000
     0.500000000  0.500000000  0.333057971
     0.500000000  0.500000000  0.666942029
     0.500000000  0.000000000  0.166484995
     0.500000000  0.000000000  0.500000000
     0.500000000  0.000000000  0.833515005
     0.000000000  0.000000000  0.000000000
     0.000000000  0.000000000  0.333169154
     0.000000000  0.000000000  0.666830846

  ion indices of the primitive-cell ions
   primitive index   ion index
                 1           1
                 2           2
                 3           3
                 4           4
                 5           5
                 6           6
                 7           7
                 8           8
                 9           9
                10          10
                11          11
                12          12

----------------------------------------------------------------------------------------

 
 
 KPOINTS: pymatgen with grid density = 8800 / numb

Automatic generation of k-mesh.
 Grid dimensions read from file:
 generate k-points for:   13   13    4

 Generating k-lattice:

  Cartesian coordinates                     Fractional coordinates (reciprocal lattice)
     0.020442468  0.000000000  0.000000000     0.076923077  0.000000000  0.000000000
     0.000000000  0.020442468  0.000000000     0.000000000  0.076923077  0.000000000
     0.000000000  0.000000000  0.022124153     0.000000000  0.000000000  0.250000000

  Length of vectors
     0.020442468  0.020442468  0.022124153

  Shift w.r.t. Gamma in fractional coordinates (k-lattice)
     0.000000000  0.000000000  0.000000000

 TETIRR: Found   1010 inequivalent tetrahedra from     4056
 
 Subroutine IBZKPT returns following result:
 ===========================================
 
 Found     84 irreducible k-points:
 
 Following reciprocal coordinates:
            Coordinates               Weight
  0.000000  0.000000  0.000000      1.000000
  0.076923  0.000000  0.000000      4.000000
  0.153846  0.000000  0.000000      4.000000
  0.230769  0.000000  0.000000      4.000000
  0.307692  0.000000  0.000000      4.000000
  0.384615  0.000000  0.000000      4.000000
  0.461538  0.000000  0.000000      4.000000
  0.076923  0.076923  0.000000      4.000000
  0.153846  0.076923  0.000000      8.000000
  0.230769  0.076923  0.000000      8.000000
  0.307692  0.076923  0.000000      8.000000
  0.384615  0.076923  0.000000      8.000000
  0.461538  0.076923  0.000000      8.000000
  0.153846  0.153846  0.000000      4.000000
  0.230769  0.153846  0.000000      8.000000
  0.307692  0.153846  0.000000      8.000000
  0.384615  0.153846  0.000000      8.000000
  0.461538  0.153846  0.000000      8.000000
  0.230769  0.230769  0.000000      4.000000
  0.307692  0.230769  0.000000      8.000000
  0.384615  0.230769  0.000000      8.000000
  0.461538  0.230769  0.000000      8.000000
  0.307692  0.307692  0.000000      4.000000
  0.384615  0.307692  0.000000      8.000000
  0.461538  0.307692  0.000000      8.000000
  0.384615  0.384615  0.000000      4.000000
  0.461538  0.384615  0.000000      8.000000
  0.461538  0.461538  0.000000      4.000000
  0.000000  0.000000  0.250000      2.000000
  0.076923  0.000000  0.250000      8.000000
  0.153846  0.000000  0.250000      8.000000
  0.230769  0.000000  0.250000      8.000000
  0.307692  0.000000  0.250000      8.000000
  0.384615  0.000000  0.250000      8.000000
  0.461538  0.000000  0.250000      8.000000
  0.076923  0.076923  0.250000      8.000000
  0.153846  0.076923  0.250000     16.000000
  0.230769  0.076923  0.250000     16.000000
  0.307692  0.076923  0.250000     16.000000
  0.384615  0.076923  0.250000     16.000000
  0.461538  0.076923  0.250000     16.000000
  0.153846  0.153846  0.250000      8.000000
  0.230769  0.153846  0.250000     16.000000
  0.307692  0.153846  0.250000     16.000000
  0.384615  0.153846  0.250000     16.000000
  0.461538  0.153846  0.250000     16.000000
  0.230769  0.230769  0.250000      8.000000
  0.307692  0.230769  0.250000     16.000000
  0.384615  0.230769  0.250000     16.000000
  0.461538  0.230769  0.250000     16.000000
  0.307692  0.307692  0.250000      8.000000
  0.384615  0.307692  0.250000     16.000000
  0.461538  0.307692  0.250000     16.000000
  0.384615  0.384615  0.250000      8.000000
  0.461538  0.384615  0.250000     16.000000
  0.461538  0.461538  0.250000      8.000000
  0.000000  0.000000  0.500000      1.000000
  0.076923  0.000000  0.500000      4.000000
  0.153846  0.000000  0.500000      4.000000
  0.230769  0.000000  0.500000      4.000000
  0.307692  0.000000  0.500000      4.000000
  0.384615  0.000000  0.500000      4.000000
  0.461538  0.000000  0.500000      4.000000
  0.076923  0.076923  0.500000      4.000000
  0.153846  0.076923  0.500000      8.000000
  0.230769  0.076923  0.500000      8.000000
  0.307692  0.076923  0.500000      8.000000
  0.384615  0.076923  0.500000      8.000000
  0.461538  0.076923  0.500000      8.000000
  0.153846  0.153846  0.500000      4.000000
  0.230769  0.153846  0.500000      8.000000
  0.307692  0.153846  0.500000      8.000000
  0.384615  0.153846  0.500000      8.000000
  0.461538  0.153846  0.500000      8.000000
  0.230769  0.230769  0.500000      4.000000
  0.307692  0.230769  0.500000      8.000000
  0.384615  0.230769  0.500000      8.000000
  0.461538  0.230769  0.500000      8.000000
  0.307692  0.307692  0.500000      4.000000
  0.384615  0.307692  0.500000      8.000000
  0.461538  0.307692  0.500000      8.000000
  0.384615  0.384615  0.500000      4.000000
  0.461538  0.384615  0.500000      8.000000
  0.461538  0.461538  0.500000      4.000000
 
 Following cartesian coordinates:
            Coordinates               Weight
  0.000000  0.000000  0.000000      1.000000
  0.020442  0.000000  0.000000      4.000000
  0.040885  0.000000  0.000000      4.000000
  0.061327  0.000000  0.000000      4.000000
  0.081770  0.000000  0.000000      4.000000
  0.102212  0.000000  0.000000      4.000000
  0.122655  0.000000  0.000000      4.000000
  0.020442  0.020442  0.000000      4.000000
  0.040885  0.020442  0.000000      8.000000
  0.061327  0.020442  0.000000      8.000000
  0.081770  0.020442  0.000000      8.000000
  0.102212  0.020442  0.000000      8.000000
  0.122655  0.020442  0.000000      8.000000
  0.040885  0.040885  0.000000      4.000000
  0.061327  0.040885  0.000000      8.000000
  0.081770  0.040885  0.000000      8.000000
  0.102212  0.040885  0.000000      8.000000
  0.122655  0.040885  0.000000      8.000000
  0.061327  0.061327  0.000000      4.000000
  0.081770  0.061327  0.000000      8.000000
  0.102212  0.061327  0.000000      8.000000
  0.122655  0.061327  0.000000      8.000000
  0.081770  0.081770  0.000000      4.000000
  0.102212  0.081770  0.000000      8.000000
  0.122655  0.081770  0.000000      8.000000
  0.102212  0.102212  0.000000      4.000000
  0.122655  0.102212  0.000000      8.000000
  0.122655  0.122655  0.000000      4.000000
  0.000000  0.000000  0.022124      2.000000
  0.020442  0.000000  0.022124      8.000000
  0.040885  0.000000  0.022124      8.000000
  0.061327  0.000000  0.022124      8.000000
  0.081770  0.000000  0.022124      8.000000
  0.102212  0.000000  0.022124      8.000000
  0.122655  0.000000  0.022124      8.000000
  0.020442  0.020442  0.022124      8.000000
  0.040885  0.020442  0.022124     16.000000
  0.061327  0.020442  0.022124     16.000000
  0.081770  0.020442  0.022124     16.000000
  0.102212  0.020442  0.022124     16.000000
  0.122655  0.020442  0.022124     16.000000
  0.040885  0.040885  0.022124      8.000000
  0.061327  0.040885  0.022124     16.000000
  0.081770  0.040885  0.022124     16.000000
  0.102212  0.040885  0.022124     16.000000
  0.122655  0.040885  0.022124     16.000000
  0.061327  0.061327  0.022124      8.000000
  0.081770  0.061327  0.022124     16.000000
  0.102212  0.061327  0.022124     16.000000
  0.122655  0.061327  0.022124     16.000000
  0.081770  0.081770  0.022124      8.000000
  0.102212  0.081770  0.022124     16.000000
  0.122655  0.081770  0.022124     16.000000
  0.102212  0.102212  0.022124      8.000000
  0.122655  0.102212  0.022124     16.000000
  0.122655  0.122655  0.022124      8.000000
  0.000000  0.000000  0.044248      1.000000
  0.020442  0.000000  0.044248      4.000000
  0.040885  0.000000  0.044248      4.000000
  0.061327  0.000000  0.044248      4.000000
  0.081770  0.000000  0.044248      4.000000
  0.102212  0.000000  0.044248      4.000000
  0.122655  0.000000  0.044248      4.000000
  0.020442  0.020442  0.044248      4.000000
  0.040885  0.020442  0.044248      8.000000
  0.061327  0.020442  0.044248      8.000000
  0.081770  0.020442  0.044248      8.000000
  0.102212  0.020442  0.044248      8.000000
  0.122655  0.020442  0.044248      8.000000
  0.040885  0.040885  0.044248      4.000000
  0.061327  0.040885  0.044248      8.000000
  0.081770  0.040885  0.044248      8.000000
  0.102212  0.040885  0.044248      8.000000
  0.122655  0.040885  0.044248      8.000000
  0.061327  0.061327  0.044248      4.000000
  0.081770  0.061327  0.044248      8.000000
  0.102212  0.061327  0.044248      8.000000
  0.122655  0.061327  0.044248      8.000000
  0.081770  0.081770  0.044248      4.000000
  0.102212  0.081770  0.044248      8.000000
  0.122655  0.081770  0.044248      8.000000
  0.102212  0.102212  0.044248      4.000000
  0.122655  0.102212  0.044248      8.000000
  0.122655  0.122655  0.044248      4.000000
 


--------------------------------------------------------------------------------------------------------




 Dimension of arrays:
   k-points           NKPTS =     84   k-points in BZ     NKDIM =     84   number of bands    NBANDS=    128
   number of dos      NEDOS =    301   number of ions     NIONS =     12
   non local maximal  LDIM  =      6   non local SUM 2l+1 LMDIM =     18
   total plane-waves  NPLWV =  65856
   max r-space proj   IRMAX =      1   max aug-charges    IRDMAX=  25126
   dimension x,y,z NGX =    28 NGY =   28 NGZ =   84
   dimension x,y,z NGXF=    56 NGYF=   56 NGZF=  168
   support grid    NGXF=    56 NGYF=   56 NGZF=  168
   ions per type =               9   3
   NGX,Y,Z   is equivalent  to a cutoff of  12.37, 12.37, 12.36 a.u.
   NGXF,Y,Z  is equivalent  to a cutoff of  24.74, 24.74, 24.72 a.u.

 SYSTEM =  unknown system                          
 POSCAR =  Fe9 Pt3                                 

 Startparameter for this run:
   NWRITE =      2    write-flag & timer
   PREC   = accura    normal or accurate (medium, high low for compatibility)
   ISTART =      0    job   : 0-new  1-cont  2-samecut
   ICHARG =      2    charge: 1-file 2-atom 10-const
   ISPIN  =      2    spin polarized calculation?
   LNONCOLLINEAR =      F non collinear calculations
   LSORBIT =      F    spin-orbit coupling
   INIWAV =      1    electr: 0-lowe 1-rand  2-diag
   LASPH  =      F    aspherical Exc in radial PAW
 Electronic Relaxation 1
   ENCUT  =  520.0 eV  38.22 Ry    6.18 a.u.   7.00  7.00 21.01*2*pi/ulx,y,z
   ENINI  =  520.0     initial cutoff
   ENAUG  =  578.3 eV  augmentation charge cutoff
   NELM   =    200;   NELMIN=  2; NELMDL=  0     # of ELM steps 
   EDIFF  = 0.1E-05   stopping-criterion for ELM
   LREAL  =      F    real-space projection
   NLSPLINE    = F    spline interpolate recip. space projectors
   LCOMPAT=      F    compatible to vasp.4.4
   GGA_COMPAT  = T    GGA compatible to vasp.4.4-vasp.4.6
   LMAXPAW     = -100 max onsite density
   LMAXMIX     =    2 max onsite mixed and CHGCAR
   VOSKOWN=      0    Vosko Wilk Nusair interpolation
   ROPT   =    0.00000   0.00000
 Ionic relaxation
   EDIFFG = -.1E-01   stopping-criterion for IOM
   NSW    =      0    number of steps for IOM
   NBLOCK =      1;   KBLOCK =      1    inner block; outer block 
   IBRION =     -1    ionic relax: 0-MD 1-quasi-New 2-CG
   NFREE  =      0    steps in history (QN), initial steepest desc. (CG)
   ISIF   =      4    stress and relaxation
   IWAVPR =     10    prediction:  0-non 1-charg 2-wave 3-comb
   ISYM   =      2    0-nonsym 1-usesym 2-fastsym
   LCORR  =      T    Harris-Foulkes like correction to forces

   POTIM  = 0.5000    time-step for ionic-motion
   TEIN   =    0.0    initial temperature
   TEBEG  =    0.0;   TEEND  =   0.0 temperature during run
   SMASS  =  -3.00    Nose mass-parameter (am)
   estimated Nose-frequenzy (Omega)   =  0.10E-29 period in steps = 0.13E+47 mass=  -0.324E-27a.u.
   SCALEE = 1.0000    scale energy and forces
   NPACO  =    256;   APACO  = 10.0  distance and # of slots for P.C.
   PSTRESS=    0.0 pullay stress

  Mass of Ions in am
   POMASS =  55.85195.08
  Ionic Valenz
   ZVAL   =  14.00 10.00
  Atomic Wigner-Seitz radii
   RWIGS  =  -1.00 -1.00
  virtual crystal weights 
   VCA    =   1.00  1.00
   NELECT =     156.0000    total number of electrons
   NUPDOWN=      -1.0000    fix difference up-down

 DOS related values:
   EMIN   =  10.00;   EMAX   =-10.00  energy-range for DOS
   EFERMI =   0.00;   METHOD = LEGACY      
   ISMEAR =    -5;   SIGMA  =   0.20  broadening in eV -4-tet -1-fermi 0-gaus

 Electronic relaxation 2 (details)
   IALGO  =     38    algorithm
   LDIAG  =      T    sub-space diagonalisation (order eigenvalues)
   LSUBROT=      F    optimize rotation matrix (better conditioning)
   TURBO    =      0    0=normal 1=particle mesh
   IRESTART =      0    0=no restart 2=restart with 2 vectors
   NREBOOT  =      0    no. of reboots
   NMIN     =      0    reboot dimension
   EREF     =   0.00    reference energy to select bands
   IMIX   =      4    mixing-type and parameters
     AMIX     =   0.40;   BMIX     =  1.00
     AMIX_MAG =   1.60;   BMIX_MAG =  1.00
     AMIN     =   0.10
     WC   =   100.;   INIMIX=   1;  MIXPRE=   1;  MAXMIX= -45

 Intra band minimization:
   WEIMIN = 0.0000     energy-eigenvalue tresh-hold
   EBREAK =  0.20E-08  absolut break condition
   DEPER  =   0.30     relativ break condition  

   TIME   =   0.40     timestep for ELM

  volume/ion in A,a.u.               =      13.33        89.98
  Fermi-wavevector in a.u.,A,eV,Ry     =   1.623341  3.067669 35.854553  2.635235
  Thomas-Fermi vector in A             =   2.716807
 
 Write flags
   LWAVE        =      F    write WAVECAR
   LDOWNSAMPLE  =      F    k-point downsampling of WAVECAR
   LCHARG       =      T    write CHGCAR
   LVTOT        =      F    write LOCPOT, total local potential
   LVHAR        =      F    write LOCPOT, Hartree potential only
   WRT_POTENTIAL= false  ! write potential to hdf5 file
   LELF         =      F    write electronic localiz. function (ELF)
   LORBIT       =     11    0 simple, 1 ext, 2 COOP (PROOUT), +10 PAW based schemes


 Dipole corrections
   LMONO      =      F    monopole corrections only (constant potential shift)
   LDIPOL     =      F    correct potential (dipole corrections)
   IDIPOL     =      0    1-x, 2-y, 3-z, 4-all directions 
   EPSILON    =  1.0000000 bulk dielectric constant
   LVACPOTAV  =      F  vacuum potentials using an averaging scheme for the charge density
   VACPOTFLAT =  0.1000000 required flatness to determine vacuum potential
 Exchange correlation treatment:
   GGA     = PE    functional components
   XC_C    = 1    coefficients multiplying the functional components
   LIBXC   =     F    Libxc                    
   VOSKOWN =     0    Vosko Wilk Nusair interpolation
   LHFCALC =     F    Hartree Fock is set to
   LHFONE  =     F    Hartree Fock one center treatment
   AEXX    =    0.0000 exact exchange contribution

 Parameters of functionals:
   PE:
     No parameter
 
 Van der Waals corrections
   IVDW    =     0    specifies the selected vdW correction

 Linear response parameters
   LEPSILON=     F    determine dielectric tensor
   LRPA    =     F    only Hartree local field effects (RPA)
   LNABLA  =     F    use nabla operator in PAW spheres
   LVEL    =     F    velocity operator in full k-point grid
   CSHIFT  =0.1000    complex shift for real part using Kramers Kronig
   OMEGAMAX=  -1.0    maximum frequency
   DEG_THRESHOLD= 0.2000000E-02 threshold for treating states as degnerate
   RTIME   =   -0.100 relaxation time in fs
  (WPLASMAI=    0.000 imaginary part of plasma frequency in eV, 0.658/RTIME)
   DFIELD  = 0.0000000 0.0000000 0.0000000 field for delta impulse in time
 
  Optional k-point grid parameters
   LKPOINTS_OPT  =     F    use optional k-point grid
   KPOINTS_OPT_MODE=     1    mode for optional k-point grid
 
 Orbital magnetization related:
   ORBITALMAG=     F  switch on orbital magnetization
   LCHIMAG   =     F  perturbation theory with respect to B field
   DQ        =  0.001000  dq finite difference perturbation B field
   LLRAUG    =     F  two centre corrections for induced B field
   LBONE     =     F  B-component reconstruction in AE one-centre
   LVGVCALC  =     T  calculate vGv susceptibility
   LVGVAPPL  =     F  apply vGv susceptibility instead of pGv for G=0

 Random number generation:
   RANDOM_GENERATOR = DEFAULT
   PCG_SEED         = not used


--------------------------------------------------------------------------------------------------------


 Static calculation
 charge density and potential will be updated during run
 spin polarized calculation
 Variant of blocked Davidson
 Davidson routine will perform the subspace rotation
 perform sub-space diagonalisation
    after iterative eigenvector-optimisation
 modified Broyden-mixing scheme, WC =      100.0
 initial mixing is a Kerker type mixing with AMIX =  0.4000 and BMIX =      1.0000
 Hartree-type preconditioning will be used
 using additional bands           50
 reciprocal scheme for non local part
 use partial core corrections
 calculate Harris-corrections to forces 
   (improved forces if not selfconsistent)
 use gradient corrections 
 use of overlap-Matrix (Vanderbilt PP)
 Fermi weights with tetrahedron method with Bloechl corrections


--------------------------------------------------------------------------------------------------------


  energy-cutoff  :      520.00
  volume of cell :      160.00
      direct lattice vectors                 reciprocal lattice vectors
     3.762905518  0.000000000  0.000000000     0.265752088  0.000000000  0.000000000
     0.000000000  3.762905518  0.000000000     0.000000000  0.265752088  0.000000000
     0.000000000  0.000000000 11.299867602     0.000000000  0.000000000  0.088496612

  length of vectors
     3.762905518  3.762905518 11.299867602     0.265752088  0.265752088  0.088496612


 
 k-points in units of 2pi/SCALE and weight: pymatgen with grid density = 8800 / numb
   0.00000000  0.00000000  0.00000000       0.001
   0.02044247  0.00000000  0.00000000       0.006
   0.04088494  0.00000000  0.00000000       0.006
   0.06132741  0.00000000  0.00000000       0.006
   0.08176987  0.00000000  0.00000000       0.006
   0.10221234  0.00000000  0.00000000       0.006
   0.12265481  0.00000000  0.00000000       0.006
   0.02044247  0.02044247  0.00000000       0.006
   0.04088494  0.02044247  0.00000000       0.012
   0.06132741  0.02044247  0.00000000       0.012
   0.08176987  0.02044247  0.00000000       0.012
   0.10221234  0.02044247  0.00000000       0.012
   0.12265481  0.02044247  0.00000000       0.012
   0.04088494  0.04088494  0.00000000       0.006
   0.06132741  0.04088494  0.00000000       0.012
   0.08176987  0.04088494  0.00000000       0.012
   0.10221234  0.04088494  0.00000000       0.012
   0.12265481  0.04088494  0.00000000       0.012
   0.06132741  0.06132741  0.00000000       0.006
   0.08176987  0.06132741  0.00000000       0.012
   0.10221234  0.06132741  0.00000000       0.012
   0.12265481  0.06132741  0.00000000       0.012
   0.08176987  0.08176987  0.00000000       0.006
   0.10221234  0.08176987  0.00000000       0.012
   0.12265481  0.08176987  0.00000000       0.012
   0.10221234  0.10221234  0.00000000       0.006
   0.12265481  0.10221234  0.00000000       0.012
   0.12265481  0.12265481  0.00000000       0.006
   0.00000000  0.00000000  0.02212415       0.003
   0.02044247  0.00000000  0.02212415       0.012
   0.04088494  0.00000000  0.02212415       0.012
   0.06132741  0.00000000  0.02212415       0.012
   0.08176987  0.00000000  0.02212415       0.012
   0.10221234  0.00000000  0.02212415       0.012
   0.12265481  0.00000000  0.02212415       0.012
   0.02044247  0.02044247  0.02212415       0.012
   0.04088494  0.02044247  0.02212415       0.024
   0.06132741  0.02044247  0.02212415       0.024
   0.08176987  0.02044247  0.02212415       0.024
   0.10221234  0.02044247  0.02212415       0.024
   0.12265481  0.02044247  0.02212415       0.024
   0.04088494  0.04088494  0.02212415       0.012
   0.06132741  0.04088494  0.02212415       0.024
   0.08176987  0.04088494  0.02212415       0.024
   0.10221234  0.04088494  0.02212415       0.024
   0.12265481  0.04088494  0.02212415       0.024
   0.06132741  0.06132741  0.02212415       0.012
   0.08176987  0.06132741  0.02212415       0.024
   0.10221234  0.06132741  0.02212415       0.024
   0.12265481  0.06132741  0.02212415       0.024
   0.08176987  0.08176987  0.02212415       0.012
   0.10221234  0.08176987  0.02212415       0.024
   0.12265481  0.08176987  0.02212415       0.024
   0.10221234  0.10221234  0.02212415       0.012
   0.12265481  0.10221234  0.02212415       0.024
   0.12265481  0.12265481  0.02212415       0.012
   0.00000000  0.00000000  0.04424831       0.001
   0.02044247  0.00000000  0.04424831       0.006
   0.04088494  0.00000000  0.04424831       0.006
   0.06132741  0.00000000  0.04424831       0.006
   0.08176987  0.00000000  0.04424831       0.006
   0.10221234  0.00000000  0.04424831       0.006
   0.12265481  0.00000000  0.04424831       0.006
   0.02044247  0.02044247  0.04424831       0.006
   0.04088494  0.02044247  0.04424831       0.012
   0.06132741  0.02044247  0.04424831       0.012
   0.08176987  0.02044247  0.04424831       0.012
   0.10221234  0.02044247  0.04424831       0.012
   0.12265481  0.02044247  0.04424831       0.012
   0.04088494  0.04088494  0.04424831       0.006
   0.06132741  0.04088494  0.04424831       0.012
   0.08176987  0.04088494  0.04424831       0.012
   0.10221234  0.04088494  0.04424831       0.012
   0.12265481  0.04088494  0.04424831       0.012
   0.06132741  0.06132741  0.04424831       0.006
   0.08176987  0.06132741  0.04424831       0.012
   0.10221234  0.06132741  0.04424831       0.012
   0.12265481  0.06132741  0.04424831       0.012
   0.08176987  0.08176987  0.04424831       0.006
   0.10221234  0.08176987  0.04424831       0.012
   0.12265481  0.08176987  0.04424831       0.012
   0.10221234  0.10221234  0.04424831       0.006
   0.12265481  0.10221234  0.04424831       0.012
   0.12265481  0.12265481  0.04424831       0.006
 
 k-points in reciprocal lattice and weights: pymatgen with grid density = 8800 / numb
   0.00000000  0.00000000  0.00000000       0.001
   0.07692308  0.00000000  0.00000000       0.006
   0.15384615  0.00000000  0.00000000       0.006
   0.23076923  0.00000000  0.00000000       0.006
   0.30769231  0.00000000  0.00000000       0.006
   0.38461538  0.00000000  0.00000000       0.006
   0.46153846  0.00000000  0.00000000       0.006
   0.07692308  0.07692308  0.00000000       0.006
   0.15384615  0.07692308  0.00000000       0.012
   0.23076923  0.07692308  0.00000000       0.012
   0.30769231  0.07692308  0.00000000       0.012
   0.38461538  0.07692308  0.00000000       0.012
   0.46153846  0.07692308  0.00000000       0.012
   0.15384615  0.15384615  0.00000000       0.006
   0.23076923  0.15384615  0.00000000       0.012
   0.30769231  0.15384615  0.00000000       0.012
   0.38461538  0.15384615  0.00000000       0.012
   0.46153846  0.15384615  0.00000000       0.012
   0.23076923  0.23076923  0.00000000       0.006
   0.30769231  0.23076923  0.00000000       0.012
   0.38461538  0.23076923  0.00000000       0.012
   0.46153846  0.23076923  0.00000000       0.012
   0.30769231  0.30769231  0.00000000       0.006
   0.38461538  0.30769231  0.00000000       0.012
   0.46153846  0.30769231  0.00000000       0.012
   0.38461538  0.38461538  0.00000000       0.006
   0.46153846  0.38461538  0.00000000       0.012
   0.46153846  0.46153846  0.00000000       0.006
   0.00000000  0.00000000  0.25000000       0.003
   0.07692308  0.00000000  0.25000000       0.012
   0.15384615  0.00000000  0.25000000       0.012
   0.23076923  0.00000000  0.25000000       0.012
   0.30769231  0.00000000  0.25000000       0.012
   0.38461538  0.00000000  0.25000000       0.012
   0.46153846  0.00000000  0.25000000       0.012
   0.07692308  0.07692308  0.25000000       0.012
   0.15384615  0.07692308  0.25000000       0.024
   0.23076923  0.07692308  0.25000000       0.024
   0.30769231  0.07692308  0.25000000       0.024
   0.38461538  0.07692308  0.25000000       0.024
   0.46153846  0.07692308  0.25000000       0.024
   0.15384615  0.15384615  0.25000000       0.012
   0.23076923  0.15384615  0.25000000       0.024
   0.30769231  0.15384615  0.25000000       0.024
   0.38461538  0.15384615  0.25000000       0.024
   0.46153846  0.15384615  0.25000000       0.024
   0.23076923  0.23076923  0.25000000       0.012
   0.30769231  0.23076923  0.25000000       0.024
   0.38461538  0.23076923  0.25000000       0.024
   0.46153846  0.23076923  0.25000000       0.024
   0.30769231  0.30769231  0.25000000       0.012
   0.38461538  0.30769231  0.25000000       0.024
   0.46153846  0.30769231  0.25000000       0.024
   0.38461538  0.38461538  0.25000000       0.012
   0.46153846  0.38461538  0.25000000       0.024
   0.46153846  0.46153846  0.25000000       0.012
   0.00000000  0.00000000  0.50000000       0.001
   0.07692308  0.00000000  0.50000000       0.006
   0.15384615  0.00000000  0.50000000       0.006
   0.23076923  0.00000000  0.50000000       0.006
   0.30769231  0.00000000  0.50000000       0.006
   0.38461538  0.00000000  0.50000000       0.006
   0.46153846  0.00000000  0.50000000       0.006
   0.07692308  0.07692308  0.50000000       0.006
   0.15384615  0.07692308  0.50000000       0.012
   0.23076923  0.07692308  0.50000000       0.012
   0.30769231  0.07692308  0.50000000       0.012
   0.38461538  0.07692308  0.50000000       0.012
   0.46153846  0.07692308  0.50000000       0.012
   0.15384615  0.15384615  0.50000000       0.006
   0.23076923  0.15384615  0.50000000       0.012
   0.30769231  0.15384615  0.50000000       0.012
   0.38461538  0.15384615  0.50000000       0.012
   0.46153846  0.15384615  0.50000000       0.012
   0.23076923  0.23076923  0.50000000       0.006
   0.30769231  0.23076923  0.50000000       0.012
   0.38461538  0.23076923  0.50000000       0.012
   0.46153846  0.23076923  0.50000000       0.012
   0.30769231  0.30769231  0.50000000       0.006
   0.38461538  0.30769231  0.50000000       0.012
   0.46153846  0.30769231  0.50000000       0.012
   0.38461538  0.38461538  0.50000000       0.006
   0.46153846  0.38461538  0.50000000       0.012
   0.46153846  0.46153846  0.50000000       0.006
 
 position of ions in fractional coordinates (direct lattice) 
   0.00000000  0.50000000  0.16648500
   0.00000000  0.50000000  0.50000000
   0.00000000  0.50000000  0.83351500
   0.50000000  0.50000000  0.00000000
   0.50000000  0.50000000  0.33305797
   0.50000000  0.50000000  0.66694203
   0.50000000  0.00000000  0.16648500
   0.50000000  0.00000000  0.50000000
   0.50000000  0.00000000  0.83351500
   0.00000000  0.00000000  0.00000000
   0.00000000  0.00000000  0.33316915
   0.00000000  0.00000000  0.66683085
 
 position of ions in cartesian coordinates  (Angst):
   0.00000000  1.88145276  1.88125840
   0.00000000  1.88145276  5.64993380
   0.00000000  1.88145276  9.41860920
   1.88145276  1.88145276  0.00000000
   1.88145276  1.88145276  3.76351098
   1.88145276  1.88145276  7.53635663
   1.88145276  0.00000000  1.88125840
   1.88145276  0.00000000  5.64993380
   1.88145276  0.00000000  9.41860920
   0.00000000  0.00000000  0.00000000
   0.00000000  0.00000000  3.76476733
   0.00000000  0.00000000  7.53510028
 


--------------------------------------------------------------------------------------------------------


 k-point     1 :   0.0000 0.0000 0.0000  plane waves:    4235
 k-point     2 :   0.0769 0.0000 0.0000  plane waves:    4256
 k-point     3 :   0.1538 0.0000 0.0000  plane waves:    4268
 k-point     4 :   0.2308 0.0000 0.0000  plane waves:    4298
 k-point     5 :   0.3077 0.0000 0.0000  plane waves:    4298
 k-point     6 :   0.3846 0.0000 0.0000  plane waves:    4294
 k-point     7 :   0.4615 0.0000 0.0000  plane waves:    4300
 k-point     8 :   0.0769 0.0769 0.0000  plane waves:    4282
 k-point     9 :   0.1538 0.0769 0.0000  plane waves:    4279
 k-point    10 :   0.2308 0.0769 0.0000  plane waves:    4283
 k-point    11 :   0.3077 0.0769 0.0000  plane waves:    4302
 k-point    12 :   0.3846 0.0769 0.0000  plane waves:    4315
 k-point    13 :   0.4615 0.0769 0.0000  plane waves:    4315
 k-point    14 :   0.1538 0.1538 0.0000  plane waves:    4290
 k-point    15 :   0.2308 0.1538 0.0000  plane waves:    4300
 k-point    16 :   0.3077 0.1538 0.0000  plane waves:    4309
 k-point    17 :   0.3846 0.1538 0.0000  plane waves:    4316
 k-point    18 :   0.4615 0.1538 0.0000  plane waves:    4318
 k-point    19 :   0.2308 0.2308 0.0000  plane waves:    4278
 k-point    20 :   0.3077 0.2308 0.0000  plane waves:    4316
 k-point    21 :   0.3846 0.2308 0.0000  plane waves:    4318
 k-point    22 :   0.4615 0.2308 0.0000  plane waves:    4332
 k-point    23 :   0.3077 0.3077 0.0000  plane waves:    4338
 k-point    24 :   0.3846 0.3077 0.0000  plane waves:    4326
 k-point    25 :   0.4615 0.3077 0.0000  plane waves:    4309
 k-point    26 :   0.3846 0.3846 0.0000  plane waves:    4316
 k-point    27 :   0.4615 0.3846 0.0000  plane waves:    4316
 k-point    28 :   0.4615 0.4615 0.0000  plane waves:    4332
 k-point    29 :   0.0000 0.0000 0.2500  plane waves:    4250
 k-point    30 :   0.0769 0.0000 0.2500  plane waves:    4269
 k-point    31 :   0.1538 0.0000 0.2500  plane waves:    4283
 k-point    32 :   0.2308 0.0000 0.2500  plane waves:    4281
 k-point    33 :   0.3077 0.0000 0.2500  plane waves:    4295
 k-point    34 :   0.3846 0.0000 0.2500  plane waves:    4292
 k-point    35 :   0.4615 0.0000 0.2500  plane waves:    4306
 k-point    36 :   0.0769 0.0769 0.2500  plane waves:    4274
 k-point    37 :   0.1538 0.0769 0.2500  plane waves:    4287
 k-point    38 :   0.2308 0.0769 0.2500  plane waves:    4291
 k-point    39 :   0.3077 0.0769 0.2500  plane waves:    4299
 k-point    40 :   0.3846 0.0769 0.2500  plane waves:    4312
 k-point    41 :   0.4615 0.0769 0.2500  plane waves:    4321
 k-point    42 :   0.1538 0.1538 0.2500  plane waves:    4292
 k-point    43 :   0.2308 0.1538 0.2500  plane waves:    4306
 k-point    44 :   0.3077 0.1538 0.2500  plane waves:    4306
 k-point    45 :   0.3846 0.1538 0.2500  plane waves:    4317
 k-point    46 :   0.4615 0.1538 0.2500  plane waves:    4316
 k-point    47 :   0.2308 0.2308 0.2500  plane waves:    4315
 k-point    48 :   0.3077 0.2308 0.2500  plane waves:    4310
 k-point    49 :   0.3846 0.2308 0.2500  plane waves:    4327
 k-point    50 :   0.4615 0.2308 0.2500  plane waves:    4330
 k-point    51 :   0.3077 0.3077 0.2500  plane waves:    4319
 k-point    52 :   0.3846 0.3077 0.2500  plane waves:    4326
 k-point    53 :   0.4615 0.3077 0.2500  plane waves:    4331
 k-point    54 :   0.3846 0.3846 0.2500  plane waves:    4331
 k-point    55 :   0.4615 0.3846 0.2500  plane waves:    4312
 k-point    56 :   0.4615 0.4615 0.2500  plane waves:    4306
 k-point    57 :   0.0000 0.0000 0.5000  plane waves:    4250
 k-point    58 :   0.0769 0.0000 0.5000  plane waves:    4272
 k-point    59 :   0.1538 0.0000 0.5000  plane waves:    4286
 k-point    60 :   0.2308 0.0000 0.5000  plane waves:    4280
 k-point    61 :   0.3077 0.0000 0.5000  plane waves:    4290
 k-point    62 :   0.3846 0.0000 0.5000  plane waves:    4320
 k-point    63 :   0.4615 0.0000 0.5000  plane waves:    4316
 k-point    64 :   0.0769 0.0769 0.5000  plane waves:    4282
 k-point    65 :   0.1538 0.0769 0.5000  plane waves:    4292
 k-point    66 :   0.2308 0.0769 0.5000  plane waves:    4290
 k-point    67 :   0.3077 0.0769 0.5000  plane waves:    4298
 k-point    68 :   0.3846 0.0769 0.5000  plane waves:    4312
 k-point    69 :   0.4615 0.0769 0.5000  plane waves:    4318
 k-point    70 :   0.1538 0.1538 0.5000  plane waves:    4314
 k-point    71 :   0.2308 0.1538 0.5000  plane waves:    4306
 k-point    72 :   0.3077 0.1538 0.5000  plane waves:    4314
 k-point    73 :   0.3846 0.1538 0.5000  plane waves:    4314
 k-point    74 :   0.4615 0.1538 0.5000  plane waves:    4324
 k-point    75 :   0.2308 0.2308 0.5000  plane waves:    4318
 k-point    76 :   0.3077 0.2308 0.5000  plane waves:    4332
 k-point    77 :   0.3846 0.2308 0.5000  plane waves:    4318
 k-point    78 :   0.4615 0.2308 0.5000  plane waves:    4322
 k-point    79 :   0.3077 0.3077 0.5000  plane waves:    4320
 k-point    80 :   0.3846 0.3077 0.5000  plane waves:    4324
 k-point    81 :   0.4615 0.3077 0.5000  plane waves:    4324
 k-point    82 :   0.3846 0.3846 0.5000  plane waves:    4326
 k-point    83 :   0.4615 0.3846 0.5000  plane waves:    4306
 k-point    84 :   0.4615 0.4615 0.5000  plane waves:    4314

 maximum and minimum number of plane-waves per node :      4338     4235

 maximum number of plane-waves:      4338
 maximum index in each direction: 
   IXMAX=    6   IYMAX=    6   IZMAX=   21
   IXMIN=   -7   IYMIN=   -7   IZMIN=  -21


 serial   3D FFT for wavefunctions
 parallel 3D FFT for charge:
    minimum data exchange during FFTs selected (reduces bandwidth)


 total amount of memory used by VASP MPI-rank0   193394. kBytes
=======================================================================

   base      :      30000. kBytes
   nonl-proj :     106119. kBytes
   fftplans  :        888. kBytes
   grid      :       6813. kBytes
   one-center:        373. kBytes
   wavefun   :      49201. kBytes
 
     INWAV:  cpu time      0.0000: real time      0.0000
 Broyden mixing: mesh for mixing (old mesh)
   NGX = 13   NGY = 13   NGZ = 43
  (NGX  = 56   NGY  = 56   NGZ  =168)
  gives a total of   7267 points

 initial charge density was supplied:
 charge density of overlapping atoms calculated
 number of electron     156.0000000 magnetization      25.9620000
 keeping initial charge density in first step


--------------------------------------------------------------------------------------------------------


 Maximum index for augmentation-charges         1005 (set IRDMAX)


--------------------------------------------------------------------------------------------------------


 First call to EWALD:  gamma=   0.326
 Maximum number of real-space cells 4x 4x 2
 Maximum number of reciprocal cells 2x 2x 5

    FEWALD:  cpu time      0.0014: real time      0.0014


--------------------------------------- Ionic step        1  -------------------------------------------




--------------------------------------- Iteration      1(   1)  ---------------------------------------


    POTLOK:  cpu time      0.0279: real time      0.0491
    SETDIJ:  cpu time      0.0087: real time      0.0094
     EDDAV:  cpu time      5.9300: real time      5.9740
 BZINTS: Fermi energy:   22.872867;  156.000000 electrons
         Band energy: 0.480099E+03;  BLOECHL correction:   -0.054051
       DOS:  cpu time      0.1271: real time      0.1286
    --------------------------------------------
      LOOP:  cpu time      6.0937: real time      6.1611

 eigenvalue-minimisations  : 43008
 total energy-change (2. order) : 0.1770713E+04  (-0.8455388E+04)
 number of electron     156.0000000 magnetization      25.9620000
 augmentation part      156.0000000 magnetization      25.9620000

 Free energy of the ion-electron system (eV)
  ---------------------------------------------------
  alpha Z        PSCENC =      1063.68830978
  Ewald energy   TEWEN  =    -17940.22451375
  -Hartree energ DENC   =     -6069.59403319
  -exchange      EXHF   =         0.00000000
  -V(xc)+E(xc)   XCENC  =       656.53047499
  PAW double counting   =     20093.56584594   -20817.45507453
  entropy T*S    EENTRO =         0.00000000
  eigenvalues    EBANDS =       480.09933845
  atomic energy  EATOM  =     24304.10294433
  Solvation  Ediel_sol  =         0.00000000
  ---------------------------------------------------
  free energy    TOTEN  =      1770.71329202 eV

  energy without entropy =     1770.71329202  energy(sigma->0) =     1770.71329202


--------------------------------------------------------------------------------------------------------




--------------------------------------- Iteration      1(   2)  ---------------------------------------


     EDDAV:  cpu time      5.9080: real time      5.9593
 BZINTS: Fermi energy:   11.786027;  156.000000 electrons
         Band energy:-0.128393E+04;  BLOECHL correction:   -0.027905
       DOS:  cpu time      0.1284: real time      0.1294
    --------------------------------------------
      LOOP:  cpu time      6.0364: real time      6.0887

 eigenvalue-minimisations  : 43040
 total energy-change (2. order) :-0.1764032E+04  (-0.1671893E+04)
 number of electron     156.0000000 magnetization      25.9620000
 augmentation part      156.0000000 magnetization      25.9620000

 Free energy of the ion-electron system (eV)
  ---------------------------------------------------
  alpha Z        PSCENC =      1063.68830978
  Ewald energy   TEWEN  =    -17940.22451375
  -Hartree energ DENC   =     -6069.59403319
  -exchange      EXHF   =         0.00000000
  -V(xc)+E(xc)   XCENC  =       656.53047499
  PAW double counting   =     20093.56584594   -20817.45507453
  entropy T*S    EENTRO =         0.00000000
  eigenvalues    EBANDS =     -1283.93273923
  atomic energy  EATOM  =     24304.10294433
  Solvation  Ediel_sol  =         0.00000000
  ---------------------------------------------------
  free energy    TOTEN  =         6.68121434 eV

  energy without entropy =        6.68121434  energy(sigma->0) =        6.68121434


--------------------------------------------------------------------------------------------------------




--------------------------------------- Iteration      1(   3)  ---------------------------------------


     EDDAV:  cpu time      7.0730: real time      7.1317
 BZINTS: Fermi energy:   11.155370;  156.000000 electrons
         Band energy:-0.139310E+04;  BLOECHL correction:   -0.048211
       DOS:  cpu time      0.1288: real time      0.1297
    --------------------------------------------
      LOOP:  cpu time      7.2018: real time      7.2615

 eigenvalue-minimisations  : 50368
 total energy-change (2. order) :-0.1091652E+03  (-0.1074260E+03)
 number of electron     156.0000000 magnetization      25.9620000
 augmentation part      156.0000000 magnetization      25.9620000

 Free energy of the ion-electron system (eV)
  ---------------------------------------------------
  alpha Z        PSCENC =      1063.68830978
  Ewald energy   TEWEN  =    -17940.22451375
  -Hartree energ DENC   =     -6069.59403319
  -exchange      EXHF   =         0.00000000
  -V(xc)+E(xc)   XCENC  =       656.53047499
  PAW double counting   =     20093.56584594   -20817.45507453
  entropy T*S    EENTRO =         0.00000000
  eigenvalues    EBANDS =     -1393.09798310
  atomic energy  EATOM  =     24304.10294433
  Solvation  Ediel_sol  =         0.00000000
  ---------------------------------------------------
  free energy    TOTEN  =      -102.48402953 eV

  energy without entropy =     -102.48402953  energy(sigma->0) =     -102.48402953


--------------------------------------------------------------------------------------------------------




--------------------------------------- Iteration      1(   4)  ---------------------------------------


     EDDAV:  cpu time      6.2879: real time      6.3373
 BZINTS: Fermi energy:   11.150481;  156.000000 electrons
         Band energy:-0.139471E+04;  BLOECHL correction:   -0.048317
       DOS:  cpu time      0.1275: real time      0.1285
    --------------------------------------------
      LOOP:  cpu time      6.4155: real time      6.4658

 eigenvalue-minimisations  : 45952
 total energy-change (2. order) :-0.1615383E+01  (-0.1614897E+01)
 number of electron     156.0000000 magnetization      25.9620000
 augmentation part      156.0000000 magnetization      25.9620000

 Free energy of the ion-electron system (eV)
  ---------------------------------------------------
  alpha Z        PSCENC =      1063.68830978
  Ewald energy   TEWEN  =    -17940.22451375
  -Hartree energ DENC   =     -6069.59403319
  -exchange      EXHF   =         0.00000000
  -V(xc)+E(xc)   XCENC  =       656.53047499
  PAW double counting   =     20093.56584594   -20817.45507453
  entropy T*S    EENTRO =         0.00000000
  eigenvalues    EBANDS =     -1394.71336640
  atomic energy  EATOM  =     24304.10294433
  Solvation  Ediel_sol  =         0.00000000
  ---------------------------------------------------
  free energy    TOTEN  =      -104.09941284 eV

  energy without entropy =     -104.09941284  energy(sigma->0) =     -104.09941284


--------------------------------------------------------------------------------------------------------




--------------------------------------- Iteration      1(   5)  ---------------------------------------


     EDDAV:  cpu time      7.5092: real time      7.5599
 BZINTS: Fermi energy:   11.150436;  156.000000 electrons
         Band energy:-0.139475E+04;  BLOECHL correction:   -0.048316
       DOS:  cpu time      0.1283: real time      0.1293
    CHARGE:  cpu time      0.1498: real time      0.1512
    MIXING:  cpu time      0.0073: real time      0.0077
    --------------------------------------------
      LOOP:  cpu time      7.7948: real time      7.8482

 eigenvalue-minimisations  : 52928
 total energy-change (2. order) :-0.3203616E-01  (-0.3203527E-01)
 number of electron     156.0000201 magnetization      24.8597517
 augmentation part       79.4393943 magnetization      18.0806864

 Broyden mixing:
  rms(total) = 0.37205E+01    rms(broyden)= 0.37198E+01
  rms(prec ) = 0.41968E+01
  weight for this iteration     100.00

 Free energy of the ion-electron system (eV)
  ---------------------------------------------------
  alpha Z        PSCENC =      1063.68830978
  Ewald energy   TEWEN  =    -17940.22451375
  -Hartree energ DENC   =     -6069.59403319
  -exchange      EXHF   =         0.00000000
  -V(xc)+E(xc)   XCENC  =       656.53047499
  PAW double counting   =     20093.56584594   -20817.45507453
  entropy T*S    EENTRO =         0.00000000
  eigenvalues    EBANDS =     -1394.74540256
  atomic energy  EATOM  =     24304.10294433
  Solvation  Ediel_sol  =         0.00000000
  ---------------------------------------------------
  free energy    TOTEN  =      -104.13144900 eV

  energy without entropy =     -104.13144900  energy(sigma->0) =     -104.13144900


--------------------------------------------------------------------------------------------------------




--------------------------------------- Iteration      1(   6)  ---------------------------------------


    POTLOK:  cpu time      0.0426: real time      0.0434
    SETDIJ:  cpu time      0.0836: real time      0.0840
     EDDAV:  cpu time      6.6964: real time      6.7421
 BZINTS: Fermi energy:    8.584834;  156.000000 electrons
         Band energy:-0.181533E+04;  BLOECHL correction:   -0.068821
       DOS:  cpu time      0.1335: real time      0.1349
    CHARGE:  cpu time      0.1449: real time      0.1456
    MIXING:  cpu time      0.0034: real time      0.0035
    --------------------------------------------
      LOOP:  cpu time      7.1044: real time      7.1536

 eigenvalue-minimisations  : 48672
 total energy-change (2. order) : 0.2664787E+01  (-0.6539043E+01)
 number of electron     156.0000221 magnetization      24.2257005
 augmentation part       88.1812707 magnetization      18.8482059

 Broyden mixing:
  rms(total) = 0.36840E+01    rms(broyden)= 0.36836E+01
  rms(prec ) = 0.44842E+01
  weight for this iteration     100.00

 eigenvalues of (default mixing * dielectric matrix)
  average eigenvalue GAMMA=   0.4052
  0.4052

 Free energy of the ion-electron system (eV)
  ---------------------------------------------------
  alpha Z        PSCENC =      1063.68830978
  Ewald energy   TEWEN  =    -17940.22451375
  -Hartree energ DENC   =     -5652.64446762
  -exchange      EXHF   =         0.00000000
  -V(xc)+E(xc)   XCENC  =       639.27163538
  PAW double counting   =     20369.09719158   -21069.42526008
  entropy T*S    EENTRO =         0.00000000
  eigenvalues    EBANDS =     -1815.33250197
  atomic energy  EATOM  =     24304.10294433
  Solvation  Ediel_sol  =         0.00000000
  ---------------------------------------------------
  free energy    TOTEN  =      -101.46666236 eV

  energy without entropy =     -101.46666236  energy(sigma->0) =     -101.46666236


--------------------------------------------------------------------------------------------------------




--------------------------------------- Iteration      1(   7)  ---------------------------------------


    POTLOK:  cpu time      0.0436: real time      0.0444
    SETDIJ:  cpu time      0.0067: real time      0.0067
     EDDAV:  cpu time      6.7667: real time      6.8149
 BZINTS: Fermi energy:    9.717678;  156.000000 electrons
         Band energy:-0.162883E+04;  BLOECHL correction:   -0.038547
       DOS:  cpu time      0.1361: real time      0.1370
    CHARGE:  cpu time      0.1435: real time      0.1442
    MIXING:  cpu time      0.0027: real time      0.0028
    --------------------------------------------
      LOOP:  cpu time      7.0992: real time      7.1500

 eigenvalue-minimisations  : 49376
 total energy-change (2. order) : 0.5897491E+01  (-0.8216961E+01)
 number of electron     156.0000204 magnetization      24.2669994
 augmentation part       83.9338657 magnetization      17.4362758

 Broyden mixing:
  rms(total) = 0.20049E+01    rms(broyden)= 0.20048E+01
  rms(prec ) = 0.23696E+01
  weight for this iteration     100.00

 eigenvalues of (default mixing * dielectric matrix)
  average eigenvalue GAMMA=   0.6206
  0.9253  0.3158

 Free energy of the ion-electron system (eV)
  ---------------------------------------------------
  alpha Z        PSCENC =      1063.68830978
  Ewald energy   TEWEN  =    -17940.22451375
  -Hartree energ DENC   =     -5806.65712465
  -exchange      EXHF   =         0.00000000
  -V(xc)+E(xc)   XCENC  =       644.36694365
  PAW double counting   =     20958.60143112   -21690.61480602
  entropy T*S    EENTRO =         0.00000000
  eigenvalues    EBANDS =     -1628.83235566
  atomic energy  EATOM  =     24304.10294433
  Solvation  Ediel_sol  =         0.00000000
  ---------------------------------------------------
  free energy    TOTEN  =       -95.56917121 eV

  energy without entropy =      -95.56917121  energy(sigma->0) =      -95.56917121


--------------------------------------------------------------------------------------------------------




--------------------------------------- Iteration      1(   8)  ---------------------------------------


    POTLOK:  cpu time      0.0366: real time      0.0437
    SETDIJ:  cpu time      0.0079: real time      0.0079
     EDDAV:  cpu time      7.3802: real time      7.4290
 BZINTS: Fermi energy:    9.668739;  156.000000 electrons
         Band energy:-0.166041E+04;  BLOECHL correction:   -0.017666
       DOS:  cpu time      0.1354: real time      0.1363
    CHARGE:  cpu time      0.1452: real time      0.1462
    MIXING:  cpu time      0.0018: real time      0.0018
    --------------------------------------------
      LOOP:  cpu time      7.7070: real time      7.7649

 eigenvalue-minimisations  : 52928
 total energy-change (2. order) :-0.1900272E+01  (-0.2312925E+01)
 number of electron     156.0000213 magnetization      24.1963740
 augmentation part       84.5294312 magnetization      18.3914792

 Broyden mixing:
  rms(total) = 0.28420E+01    rms(broyden)= 0.28416E+01
  rms(prec ) = 0.47158E+01
  weight for this iteration     100.00

 eigenvalues of (default mixing * dielectric matrix)
  average eigenvalue GAMMA=   0.5376
  1.0465  0.2832  0.2832

 Free energy of the ion-electron system (eV)
  ---------------------------------------------------
  alpha Z        PSCENC =      1063.68830978
  Ewald energy   TEWEN  =    -17940.22451375
  -Hartree energ DENC   =     -5767.50084545
  -exchange      EXHF   =         0.00000000
  -V(xc)+E(xc)   XCENC  =       644.68154394
  PAW double counting   =     21355.33449423   -22097.14627272
  entropy T*S    EENTRO =         0.00000000
  eigenvalues    EBANDS =     -1660.40510323
  atomic energy  EATOM  =     24304.10294433
  Solvation  Ediel_sol  =         0.00000000
  ---------------------------------------------------
  free energy    TOTEN  =       -97.46944288 eV

  energy without entropy =      -97.46944288  energy(sigma->0) =      -97.46944288


--------------------------------------------------------------------------------------------------------




--------------------------------------- Iteration      1(   9)  ---------------------------------------


    POTLOK:  cpu time      0.0427: real time      0.0436
    SETDIJ:  cpu time      0.0077: real time      0.0077
     EDDAV:  cpu time      7.2499: real time      7.2995
 BZINTS: Fermi energy:    9.474269;  156.000000 electrons
         Band energy:-0.166524E+04;  BLOECHL correction:   -0.044680
       DOS:  cpu time      0.1336: real time      0.1345
    CHARGE:  cpu time      0.1429: real time      0.1437
    MIXING:  cpu time      0.0019: real time      0.0019
    --------------------------------------------
      LOOP:  cpu time      7.5787: real time      7.6310

 eigenvalue-minimisations  : 51808
 total energy-change (2. order) : 0.3344047E+01  (-0.2926874E+01)
 number of electron     156.0000207 magnetization      24.4083345
 augmentation part       84.8002128 magnetization      18.1945673

 Broyden mixing:
  rms(total) = 0.11881E+01    rms(broyden)= 0.11874E+01
  rms(prec ) = 0.17552E+01
  weight for this iteration     100.00

 eigenvalues of (default mixing * dielectric matrix)
  average eigenvalue GAMMA=   0.6764
  1.4896  0.7593  0.3480  0.1087

 Free energy of the ion-electron system (eV)
  ---------------------------------------------------
  alpha Z        PSCENC =      1063.68830978
  Ewald energy   TEWEN  =    -17940.22451375
  -Hartree energ DENC   =     -5756.98140116
  -exchange      EXHF   =         0.00000000
  -V(xc)+E(xc)   XCENC  =       644.38945298
  PAW double counting   =     21441.86439759   -22185.72278786
  entropy T*S    EENTRO =         0.00000000
  eigenvalues    EBANDS =     -1665.24179752
  atomic energy  EATOM  =     24304.10294433
  Solvation  Ediel_sol  =         0.00000000
  ---------------------------------------------------
  free energy    TOTEN  =       -94.12539560 eV

  energy without entropy =      -94.12539560  energy(sigma->0) =      -94.12539560


--------------------------------------------------------------------------------------------------------




--------------------------------------- Iteration      1(  10)  ---------------------------------------


    POTLOK:  cpu time      0.0430: real time      0.0439
    SETDIJ:  cpu time      0.0073: real time      0.0074
     EDDAV:  cpu time      6.8854: real time      6.9331
 BZINTS: Fermi energy:    9.363107;  156.000000 electrons
         Band energy:-0.167979E+04;  BLOECHL correction:   -0.046816
       DOS:  cpu time      0.1348: real time      0.1357
    CHARGE:  cpu time      0.1449: real time      0.1460
    MIXING:  cpu time      0.0019: real time      0.0019
    --------------------------------------------
      LOOP:  cpu time      7.2174: real time      7.2679

 eigenvalue-minimisations  : 49760
 total energy-change (2. order) : 0.2204156E+00  (-0.3368708E+00)
 number of electron     156.0000209 magnetization      24.4879669
 augmentation part       85.0809012 magnetization      18.5948225

 Broyden mixing:
  rms(total) = 0.11925E+01    rms(broyden)= 0.11924E+01
  rms(prec ) = 0.14957E+01
  weight for this iteration     100.00

 eigenvalues of (default mixing * dielectric matrix)
  average eigenvalue GAMMA=   0.6338
  1.6738  0.7736  0.3043  0.3043  0.1130

 Free energy of the ion-electron system (eV)
  ---------------------------------------------------
  alpha Z        PSCENC =      1063.68830978
  Ewald energy   TEWEN  =    -17940.22451375
  -Hartree energ DENC   =     -5733.67239739
  -exchange      EXHF   =         0.00000000
  -V(xc)+E(xc)   XCENC  =       644.19611071
  PAW double counting   =     21762.00420641   -22514.21065733
  entropy T*S    EENTRO =         0.00000000
  eigenvalues    EBANDS =     -1679.78898280
  atomic energy  EATOM  =     24304.10294433
  Solvation  Ediel_sol  =         0.00000000
  ---------------------------------------------------
  free energy    TOTEN  =       -93.90498004 eV

  energy without entropy =      -93.90498004  energy(sigma->0) =      -93.90498004


--------------------------------------------------------------------------------------------------------




--------------------------------------- Iteration      1(  11)  ---------------------------------------


    POTLOK:  cpu time      0.0441: real time      0.0450
    SETDIJ:  cpu time      0.0065: real time      0.0066
     EDDAV:  cpu time      6.9935: real time      7.0405
 BZINTS: Fermi energy:    9.334240;  156.000000 electrons
         Band energy:-0.168114E+04;  BLOECHL correction:   -0.053640
       DOS:  cpu time      0.1346: real time      0.1354
    CHARGE:  cpu time      0.1434: real time      0.1441
    MIXING:  cpu time      0.0019: real time      0.0019
    --------------------------------------------
      LOOP:  cpu time      7.3240: real time      7.3736

 eigenvalue-minimisations  : 50400
 total energy-change (2. order) : 0.2185123E+00  (-0.4433971E+00)
 number of electron     156.0000209 magnetization      24.7019529
 augmentation part       85.1292531 magnetization      18.7566248

 Broyden mixing:
  rms(total) = 0.75306E+00    rms(broyden)= 0.75291E+00
  rms(prec ) = 0.98218E+00
  weight for this iteration     100.00

 eigenvalues of (default mixing * dielectric matrix)
  average eigenvalue GAMMA=   0.6627
  1.9047  0.8317  0.6102  0.3624  0.1114  0.1559

 Free energy of the ion-electron system (eV)
  ---------------------------------------------------
  alpha Z        PSCENC =      1063.68830978
  Ewald energy   TEWEN  =    -17940.22451375
  -Hartree energ DENC   =     -5729.58736441
  -exchange      EXHF   =         0.00000000
  -V(xc)+E(xc)   XCENC  =       644.15771637
  PAW double counting   =     21848.25540787   -22602.93651873
  entropy T*S    EENTRO =         0.00000000
  eigenvalues    EBANDS =     -1681.14244914
  atomic energy  EATOM  =     24304.10294433
  Solvation  Ediel_sol  =         0.00000000
  ---------------------------------------------------
  free energy    TOTEN  =       -93.68646770 eV

  energy without entropy =      -93.68646770  energy(sigma->0) =      -93.68646770


--------------------------------------------------------------------------------------------------------




--------------------------------------- Iteration      1(  12)  ---------------------------------------


    POTLOK:  cpu time      0.0424: real time      0.0433
    SETDIJ:  cpu time      0.0081: real time      0.0081
     EDDAV:  cpu time      6.8197: real time      6.8683
 BZINTS: Fermi energy:    9.366357;  156.000000 electrons
         Band energy:-0.167867E+04;  BLOECHL correction:   -0.058526
       DOS:  cpu time      0.1344: real time      0.1354
    CHARGE:  cpu time      0.1413: real time      0.1421
    MIXING:  cpu time      0.0019: real time      0.0019
    --------------------------------------------
      LOOP:  cpu time      7.1478: real time      7.1990

 eigenvalue-minimisations  : 49792
 total energy-change (2. order) : 0.2130684E+00  (-0.9731485E-01)
 number of electron     156.0000208 magnetization      24.8630598
 augmentation part       85.0347408 magnetization      18.9579663

 Broyden mixing:
  rms(total) = 0.37603E+00    rms(broyden)= 0.37596E+00
  rms(prec ) = 0.42797E+00
  weight for this iteration     100.00

 eigenvalues of (default mixing * dielectric matrix)
  average eigenvalue GAMMA=   0.6489
  1.9771  0.8015  0.5798  0.5798  0.3532  0.1110  0.1402

 Free energy of the ion-electron system (eV)
  ---------------------------------------------------
  alpha Z        PSCENC =      1063.68830978
  Ewald energy   TEWEN  =    -17940.22451375
  -Hartree energ DENC   =     -5728.31885787
  -exchange      EXHF   =         0.00000000
  -V(xc)+E(xc)   XCENC  =       644.31551636
  PAW double counting   =     21968.41436479   -22726.78308856
  entropy T*S    EENTRO =         0.00000000
  eigenvalues    EBANDS =     -1678.66807434
  atomic energy  EATOM  =     24304.10294433
  Solvation  Ediel_sol  =         0.00000000
  ---------------------------------------------------
  free energy    TOTEN  =       -93.47339927 eV

  energy without entropy =      -93.47339927  energy(sigma->0) =      -93.47339927


--------------------------------------------------------------------------------------------------------




--------------------------------------- Iteration      1(  13)  ---------------------------------------


    POTLOK:  cpu time      0.0427: real time      0.0438
    SETDIJ:  cpu time      0.0073: real time      0.0074
     EDDAV:  cpu time      6.9460: real time      6.9949
 BZINTS: Fermi energy:    9.365448;  156.000000 electrons
         Band energy:-0.167965E+04;  BLOECHL correction:   -0.060227
       DOS:  cpu time      0.1343: real time      0.1354
    CHARGE:  cpu time      0.1435: real time      0.1443
    MIXING:  cpu time      0.0020: real time      0.0020
    --------------------------------------------
      LOOP:  cpu time      7.2759: real time      7.3278

 eigenvalue-minimisations  : 50688
 total energy-change (2. order) :-0.4715117E-01  (-0.1996451E-01)
 number of electron     156.0000208 magnetization      25.0330255
 augmentation part       85.0535705 magnetization      19.1250728

 Broyden mixing:
  rms(total) = 0.41190E+00    rms(broyden)= 0.41188E+00
  rms(prec ) = 0.48770E+00
  weight for this iteration     100.00

 eigenvalues of (default mixing * dielectric matrix)
  average eigenvalue GAMMA=   0.6438
  2.0365  0.7874  0.7427  0.7427  0.3518  0.2320  0.1110  0.1460

 Free energy of the ion-electron system (eV)
  ---------------------------------------------------
  alpha Z        PSCENC =      1063.68830978
  Ewald energy   TEWEN  =    -17940.22451375
  -Hartree energ DENC   =     -5726.55415897
  -exchange      EXHF   =         0.00000000
  -V(xc)+E(xc)   XCENC  =       644.34630603
  PAW double counting   =     22008.34995290   -22767.58377507
  entropy T*S    EENTRO =         0.00000000
  eigenvalues    EBANDS =     -1679.64561569
  atomic energy  EATOM  =     24304.10294433
  Solvation  Ediel_sol  =         0.00000000
  ---------------------------------------------------
  free energy    TOTEN  =       -93.52055044 eV

  energy without entropy =      -93.52055044  energy(sigma->0) =      -93.52055044


--------------------------------------------------------------------------------------------------------




--------------------------------------- Iteration      1(  14)  ---------------------------------------


    POTLOK:  cpu time      0.0431: real time      0.0439
    SETDIJ:  cpu time      0.0080: real time      0.0080
     EDDAV:  cpu time      7.0417: real time      7.0903
[...]
    113      23.8533      0.00000
    114      24.3474      0.00000
    115      24.3547      0.00000
    116      24.6650      0.00000
    117      24.6735      0.00000
    118      25.5101      0.00000
    119      25.5149      0.00000
    120      26.7750      0.00000
    121      26.7797      0.00000
    122      26.8317      0.00000
    123      27.1916      0.00000
    124      28.0732      0.00000
    125      28.0737      0.00000
    126      28.5033      0.00000
    127      28.5035      0.00000
    128      29.0900      0.00000


--------------------------------------------------------------------------------------------------------


 soft charge-density along one line, spin component           1
         0         1         2         3         4         5         6         7         8         9
 total charge-density along one line
 
 soft charge-density along one line, spin component           2
         0         1         2         3         4         5         6         7         8         9
 total charge-density along one line
 
 pseudopotential strength for first ion, spin component:           1
-45.416   0.000  -0.000   7.796  -0.000   0.000  -0.000   0.000
  0.000 -45.410   0.000  -0.000   7.794  -0.000   0.000   0.000
 -0.000   0.000 -45.306   0.000  -0.000   7.751   0.000   0.000
  7.796  -0.000   0.000   5.591  -0.000   0.000  -0.000  -0.000
 -0.000   7.794  -0.000  -0.000   5.592  -0.000  -0.000  -0.000
  0.000  -0.000   7.751   0.000  -0.000   5.600  -0.000  -0.000
 -0.000   0.000   0.000  -0.000  -0.000  -0.000  -2.409   0.000
  0.000   0.000   0.000  -0.000  -0.000  -0.000   0.000  -2.486
 -0.000   0.000   0.000   0.000  -0.000   0.000  -0.000   0.000
  0.000   0.000   0.000  -0.000   0.000  -0.000   0.000  -0.000
 -0.000  -0.000  -0.000   0.000   0.000  -0.000  -0.000  -0.000
  0.000   0.000   0.000  -0.000  -0.000  -0.000  -2.917   0.000
  0.000   0.000   0.000  -0.000  -0.000  -0.000   0.000  -2.993
 -0.000   0.000   0.000   0.000  -0.000  -0.000  -0.000   0.000
  0.000  -0.000   0.000  -0.000   0.000  -0.000   0.000  -0.000
 -0.000  -0.000  -0.000   0.000   0.000  -0.000  -0.000  -0.000
 -0.000  -0.000   0.000  -0.000   0.000   0.000   0.000  -0.000
 -0.000  -0.000  -0.000  -0.000   0.000  -0.000   0.000  -0.000
 pseudopotential strength for first ion, spin component:           2
-43.032   0.000  -0.000   6.794  -0.000   0.000  -0.000   0.000
  0.000 -43.031   0.000  -0.000   6.793  -0.000  -0.000   0.000
 -0.000   0.000 -42.991   0.000  -0.000   6.776   0.000  -0.000
  6.794  -0.000   0.000   5.874  -0.000   0.000   0.000  -0.000
 -0.000   6.793  -0.000  -0.000   5.874  -0.000   0.000  -0.000
  0.000  -0.000   6.776   0.000  -0.000   5.878  -0.000   0.000
 -0.000  -0.000   0.000   0.000   0.000  -0.000  -0.521   0.000
  0.000   0.000  -0.000  -0.000  -0.000   0.000   0.000  -0.541
 -0.000   0.000   0.000   0.000  -0.000  -0.000   0.000   0.000
 -0.000  -0.000   0.000   0.000   0.000  -0.000   0.000  -0.000
 -0.000   0.000  -0.000   0.000  -0.000   0.000  -0.000  -0.000
  0.000  -0.000   0.000   0.000   0.000  -0.000  -1.060   0.000
  0.000   0.000  -0.000  -0.000  -0.000   0.000   0.000  -1.080
 -0.000   0.000   0.000   0.000  -0.000  -0.000   0.000   0.000
 -0.000  -0.000   0.000   0.000   0.000  -0.000   0.000  -0.000
 -0.000   0.000  -0.000   0.000  -0.000   0.000  -0.000  -0.000
 -0.000  -0.000   0.000  -0.000   0.000   0.000   0.000  -0.000
 -0.000  -0.000   0.000  -0.000   0.000   0.000   0.000  -0.000
 total augmentation occupancy for first ion, spin component:           1
  1.992  -0.000   0.000  -0.027   0.000   0.000   0.000   0.000  -0.000   0.000  -0.000   0.000  -0.000  -0.000   0.000   0.000
 -0.000   1.992   0.000  -0.000  -0.027   0.000  -0.000  -0.000   0.000   0.000  -0.000   0.000   0.000  -0.000   0.000   0.000
  0.000   0.000   1.992   0.000  -0.000  -0.026   0.000  -0.000  -0.000   0.000  -0.000   0.000   0.000   0.000  -0.000   0.000
 -0.027  -0.000   0.000   0.174  -0.000   0.000   0.000   0.001  -0.000   0.000   0.000  -0.000  -0.001   0.000   0.000   0.000
  0.000  -0.027  -0.000  -0.000   0.174   0.000  -0.000   0.000   0.000   0.000  -0.000   0.000   0.000  -0.000   0.000   0.000
  0.000   0.000  -0.026   0.000   0.000   0.155   0.000   0.000  -0.000   0.000   0.000   0.000   0.000  -0.000  -0.000   0.000
  0.000  -0.000   0.000   0.000  -0.000   0.000   2.984   0.000  -0.000   0.000  -0.000  -1.632  -0.000   0.000  -0.000   0.000
  0.000  -0.000  -0.000   0.001   0.000   0.000   0.000   3.275   0.000   0.000   0.000  -0.000  -2.146   0.000   0.000  -0.000
 -0.000   0.000  -0.000  -0.000   0.000  -0.000  -0.000   0.000   3.388   0.000   0.169   0.000   0.000  -1.937  -0.000  -0.093
  0.000   0.000   0.000   0.000   0.000   0.000   0.000   0.000   0.000   2.952   0.000  -0.000   0.000   0.000  -1.608   0.000
 -0.000  -0.000  -0.000   0.000  -0.000   0.000  -0.000   0.000   0.169   0.000   3.176   0.000  -0.000  -0.093   0.000  -1.817
  0.000   0.000   0.000  -0.000   0.000   0.000  -1.632  -0.000   0.000  -0.000   0.000   1.686   0.000   0.000  -0.000   0.000
 -0.000   0.000   0.000  -0.001   0.000   0.000  -0.000  -2.146   0.000   0.000  -0.000   0.000   2.330   0.000   0.000   0.000
 -0.000  -0.000   0.000   0.000  -0.000  -0.000   0.000   0.000  -1.937   0.000  -0.093   0.000   0.000   1.749   0.000   0.018
  0.000   0.000  -0.000   0.000   0.000  -0.000  -0.000   0.000  -0.000  -1.608   0.000  -0.000   0.000   0.000   1.671  -0.000
  0.000   0.000   0.000   0.000   0.000   0.000   0.000  -0.000  -0.093   0.000  -1.817   0.000   0.000   0.018  -0.000   1.719
  0.000   0.000  -0.000   0.000  -0.000  -0.000  -0.000   0.000  -0.102  -0.000   0.175   0.000  -0.000   0.073   0.000  -0.125
 -0.000  -0.000   0.000   0.000   0.000   0.000  -0.000   0.000   0.006  -0.000  -0.011   0.000  -0.000  -0.004  -0.000   0.007
 total augmentation occupancy for first ion, spin component:           2
 -0.002  -0.000   0.000  -0.009   0.000  -0.000   0.000  -0.000   0.000   0.000   0.000   0.000   0.000   0.000  -0.000   0.000
 -0.000  -0.002   0.000  -0.000  -0.009  -0.000   0.000   0.000   0.000  -0.000   0.000   0.000   0.000  -0.000   0.000  -0.000
  0.000   0.000  -0.002   0.000  -0.000  -0.010   0.000  -0.000   0.000   0.000   0.000  -0.000  -0.000   0.000  -0.000  -0.000
 -0.009  -0.000   0.000  -0.005   0.000   0.000  -0.000   0.000  -0.000   0.000  -0.000   0.000  -0.000   0.000  -0.000  -0.000
  0.000  -0.009  -0.000   0.000  -0.006   0.000  -0.000   0.000  -0.000   0.000  -0.000   0.000   0.000   0.000  -0.000   0.000
 -0.000  -0.000  -0.010   0.000   0.000  -0.012   0.000   0.000   0.000  -0.000  -0.000   0.000   0.000   0.000   0.000  -0.000
  0.000   0.000   0.000  -0.000  -0.000   0.000   2.459   0.000   0.000  -0.000   0.000  -1.078  -0.000   0.000   0.000   0.000
 -0.000   0.000  -0.000   0.000   0.000   0.000   0.000   2.468   0.000  -0.000  -0.000  -0.000  -1.000   0.000   0.000   0.000
  0.000   0.000   0.000  -0.000  -0.000   0.000   0.000   0.000   2.786  -0.000   0.095   0.000   0.000  -1.185   0.000  -0.092
  0.000  -0.000   0.000   0.000   0.000  -0.000  -0.000  -0.000  -0.000   2.421  -0.000   0.000   0.000  -0.000  -1.056   0.000
  0.000   0.000   0.000  -0.000  -0.000  -0.000   0.000  -0.000   0.095  -0.000   2.660   0.000  -0.000  -0.092  -0.000  -1.067
  0.000   0.000  -0.000   0.000   0.000   0.000  -1.078  -0.000   0.000   0.000   0.000   0.272   0.000   0.000   0.000   0.000
  0.000   0.000  -0.000  -0.000   0.000   0.000  -0.000  -1.000   0.000   0.000  -0.000   0.000   0.155   0.000   0.000   0.000
  0.000  -0.000   0.000   0.000   0.000   0.000   0.000   0.000  -1.185  -0.000  -0.092   0.000   0.000   0.368   0.000   0.106
 -0.000   0.000  -0.000  -0.000  -0.000   0.000   0.000   0.000   0.000  -1.056  -0.000   0.000   0.000   0.000   0.256   0.000
  0.000  -0.000  -0.000  -0.000   0.000  -0.000   0.000   0.000  -0.092   0.000  -1.067   0.000   0.000   0.106   0.000   0.238
  0.000  -0.000  -0.000   0.000  -0.000   0.000   0.000  -0.000  -0.034  -0.000   0.058   0.000   0.000   0.034   0.000  -0.058
 -0.000   0.000   0.000  -0.000  -0.000  -0.000  -0.000   0.000   0.002   0.000  -0.005   0.000   0.000  -0.000  -0.000   0.001


------------------------ aborting loop because EDIFF is reached ----------------------------------------





 total charge

# of ion       s       p       d       tot
------------------------------------------
    1        0.340   6.311   6.009  12.660
    2        0.339   6.310   6.008  12.657
    3        0.340   6.311   6.009  12.660
    4        0.339   6.311   6.009  12.660
    5        0.339   6.310   6.008  12.658
    6        0.339   6.310   6.008  12.658
    7        0.340   6.311   6.009  12.660
    8        0.339   6.310   6.008  12.657
    9        0.340   6.311   6.009  12.660
   10        0.748   0.669   8.031   9.448
   11        0.747   0.668   8.030   9.445
   12        0.747   0.668   8.030   9.445
--------------------------------------------------
tot          5.298  58.798  78.169 142.265



 magnetization (x)

# of ion       s       p       d       tot
------------------------------------------
    1       -0.002  -0.017   2.776   2.756
    2       -0.002  -0.017   2.780   2.761
    3       -0.002  -0.017   2.776   2.756
    4       -0.002  -0.017   2.778   2.759
    5       -0.002  -0.017   2.781   2.762
    6       -0.002  -0.017   2.781   2.762
    7       -0.002  -0.017   2.776   2.756
    8       -0.002  -0.017   2.780   2.761
    9       -0.002  -0.017   2.776   2.756
   10       -0.042  -0.101   0.442   0.299
   11       -0.042  -0.100   0.442   0.300
   12       -0.042  -0.100   0.442   0.300
--------------------------------------------------
tot         -0.145  -0.458  26.331  25.728
 
    CHARGE:  cpu time      0.1423: real time      0.1436
    FORLOC:  cpu time      0.0017: real time      0.0018
    FORNL :  cpu time      0.8362: real time      0.8413
    STRESS:  cpu time      4.4155: real time      4.4521
    FORCOR:  cpu time      0.0204: real time      0.0206
    FORHAR:  cpu time      0.0028: real time      0.0029
    MIXING:  cpu time      0.0023: real time      0.0023
    OFIELD:  cpu time      0.0015: real time      0.0015

  FORCE on cell =-STRESS in cart. coord.  units (eV):
  Direction    XX          YY          ZZ          XY          YZ          ZX
  --------------------------------------------------------------------------------------
  Alpha Z  1063.68831  1063.68831  1063.68831
  Ewald   -5979.68776 -5979.68776 -5980.86758     0.00000    -0.00000     0.00000
  Hartree  1908.57763  1908.57763  1907.87021    -0.00000    -0.00000    -0.00000
  E(xc)    -943.80919  -943.80919  -943.80983     0.00000    -0.00000    -0.00000
  Local    1038.29609  1038.29609  1040.22882     0.00000    -0.00000    -0.00000
  n-local  -219.43086  -233.55931  -226.79890    14.58641    -0.13434    -0.08985
  augment  1439.59520  1439.59520  1439.65225     0.00000     0.00000    -0.00000
  Kinetic  1698.23739  1692.89961  1695.42475     1.44778     0.33648     0.83168
  Fock        0.00000     0.00000     0.00000     0.00000     0.00000     0.00000
  -------------------------------------------------------------------------------------
  Total      -4.26632    -4.26632    -4.61196     0.00000     0.00000     0.00000
  in kB     -42.72123   -42.72123   -46.18240     0.00000     0.00000     0.00000
  external pressure =      -43.87 kB  Pullay stress =        0.00 kB


 VOLUME and BASIS-vectors are now :
 -----------------------------------------------------------------------------
  energy-cutoff  :      520.00
  volume of cell :      160.00
      direct lattice vectors                 reciprocal lattice vectors
     3.762905518  0.000000000  0.000000000     0.265752088  0.000000000  0.000000000
     0.000000000  3.762905518  0.000000000     0.000000000  0.265752088  0.000000000
     0.000000000  0.000000000 11.299867602     0.000000000  0.000000000  0.088496612

  length of vectors
     3.762905518  3.762905518 11.299867602     0.265752088  0.265752088  0.088496612


 FORCES acting on ions
    electron-ion (+dipol)            ewald-force                    non-local-force                 convergence-correction
 -----------------------------------------------------------------------------------------------
   -.638E-13 0.107E-11 -.479E+01   0.130E-14 0.332E-14 0.481E+01   0.873E-21 -.104E-19 0.654E-02   0.254E-13 -.153E-13 -.207E-01
   -.630E-13 0.110E-11 0.328E-11   -.177E-15 0.969E-14 0.568E-13   -.201E-24 -.329E-25 -.954E-24   0.192E-13 -.195E-13 -.174E-11
   -.623E-13 -.421E-12 0.479E+01   -.168E-13 0.145E-13 -.481E+01   -.996E-21 -.836E-20 -.654E-02   0.179E-13 -.244E-13 0.207E-01
   0.108E-11 0.795E-11 0.484E-11   -.315E-15 0.268E-13 0.227E-12   -.540E-24 0.968E-24 -.207E-23   -.183E-12 -.171E-13 0.124E-11
   0.109E-11 0.695E-11 -.609E+01   -.107E-13 -.130E-13 0.609E+01   0.245E-23 0.139E-20 0.174E-01   -.180E-12 -.209E-13 -.192E-01
   0.108E-11 0.690E-11 0.609E+01   0.310E-13 0.244E-13 -.609E+01   -.145E-22 0.323E-20 -.174E-01   -.183E-12 -.666E-14 0.192E-01
   0.109E-11 -.797E-13 -.479E+01   -.414E-15 -.180E-13 0.481E+01   0.120E-19 -.146E-19 0.654E-02   -.156E-12 -.434E-13 -.207E-01
   0.111E-11 -.759E-13 0.611E-11   0.510E-14 0.442E-14 0.284E-12   -.237E-25 0.151E-24 -.128E-23   -.158E-12 -.545E-13 -.171E-11
   0.111E-11 -.684E-13 0.479E+01   0.641E-14 -.916E-14 -.481E+01   -.259E-20 0.150E-19 -.654E-02   -.168E-12 -.414E-13 0.207E-01
   -.439E-13 -.447E-13 -.178E-12   0.106E-13 0.358E-14 0.000E+00   -.530E-24 -.343E-24 -.589E-24   0.558E-13 -.346E-14 0.954E-12
   -.442E-13 -.563E-13 -.377E+01   0.219E-13 0.940E-14 0.379E+01   -.806E-20 -.277E-21 -.704E-03   0.561E-13 -.484E-14 -.131E-01
   -.431E-13 -.346E-13 0.377E+01   -.484E-13 -.324E-13 -.379E+01   0.814E-20 -.143E-21 0.704E-03   0.554E-13 -.453E-14 0.131E-01
 -----------------------------------------------------------------------------------------------
   0.624E-11 0.232E-10 0.368E-10   -.379E-15 0.236E-13 0.103E-12   0.940E-20 -.142E-19 -.434E-17   -.798E-12 -.256E-12 -.621E-12
 
 
 POSITION                                       TOTAL-FORCE (eV/Angst)
 -----------------------------------------------------------------------------------
      0.00000      1.88145      1.88126         0.000000      0.000000      0.010076
      0.00000      1.88145      5.64993         0.000000     -0.000000     -0.000000
      0.00000      1.88145      9.41861         0.000000     -0.000000     -0.010076
      1.88145      1.88145      0.00000        -0.000000     -0.000000     -0.000000
      1.88145      1.88145      3.76351         0.000000      0.000000      0.000102
      1.88145      1.88145      7.53636        -0.000000     -0.000000     -0.000102
      1.88145      0.00000      1.88126        -0.000000      0.000000      0.010076
      1.88145      0.00000      5.64993        -0.000000      0.000000     -0.000000
      1.88145      0.00000      9.41861         0.000000      0.000000     -0.010076
      0.00000      0.00000      0.00000         0.000000      0.000000      0.000000
      0.00000      0.00000      3.76477         0.000000      0.000000      0.003538
      0.00000      0.00000      7.53510         0.000000      0.000000     -0.003538
 -----------------------------------------------------------------------------------
    total drift:                                0.000000      0.000000      0.000000


--------------------------------------------------------------------------------------------------------



  FREE ENERGIE OF THE ION-ELECTRON SYSTEM (eV)
  ---------------------------------------------------
  free  energy   TOTEN  =       -93.48604066 eV

  energy  without entropy=      -93.48604066  energy(sigma->0) =      -93.48604066
 


--------------------------------------------------------------------------------------------------------


    POTLOK:  cpu time      0.0367: real time      0.0372


--------------------------------------------------------------------------------------------------------


     LOOP+:  cpu time    168.2315: real time    169.6448
 -----------------------------------------------------------------------------
|                                                                             |
|           W    W    AA    RRRRR   N    N  II  N    N   GGGG   !!!           |
|           W    W   A  A   R    R  NN   N  II  NN   N  G    G  !!!           |
|           W    W  A    A  R    R  N N  N  II  N N  N  G       !!!           |
|           W WW W  AAAAAA  RRRRR   N  N N  II  N  N N  G  GGG   !            |
|           WW  WW  A    A  R   R   N   NN  II  N   NN  G    G                |
|           W    W  A    A  R    R  N    N  II  N    N   GGGG   !!!           |
|                                                                             |
|     Tetrahedron method does not include variations of the Fermi             |
|     occupations, so forces and stress will be inaccurate. We suggest        |
|     using a different smearing scheme ISMEAR = 1 or 2 for metals in         |
|     relaxations.                                                            |
|                                                                             |
 -----------------------------------------------------------------------------

    4ORBIT:  cpu time      0.0000: real time      0.0000



 total charge

# of ion       s       p       d       tot
------------------------------------------
    1        0.340   6.311   6.009  12.660
    2        0.339   6.310   6.008  12.657
    3        0.340   6.311   6.009  12.660
    4        0.339   6.311   6.009  12.660
    5        0.339   6.310   6.008  12.658
    6        0.339   6.310   6.008  12.658
    7        0.340   6.311   6.009  12.660
    8        0.339   6.310   6.008  12.657
    9        0.340   6.311   6.009  12.660
   10        0.748   0.669   8.031   9.448
   11        0.747   0.668   8.030   9.445
   12        0.747   0.668   8.030   9.445
--------------------------------------------------
tot          5.298  58.798  78.169 142.265



 magnetization (x)

# of ion       s       p       d       tot
------------------------------------------
    1       -0.002  -0.017   2.776   2.756
    2       -0.002  -0.017   2.780   2.761
    3       -0.002  -0.017   2.776   2.756
    4       -0.002  -0.017   2.778   2.759
    5       -0.002  -0.017   2.781   2.762
    6       -0.002  -0.017   2.781   2.762
    7       -0.002  -0.017   2.776   2.756
    8       -0.002  -0.017   2.780   2.761
    9       -0.002  -0.017   2.776   2.756
   10       -0.042  -0.101   0.442   0.299
   11       -0.042  -0.100   0.442   0.300
   12       -0.042  -0.100   0.442   0.300
--------------------------------------------------
tot         -0.145  -0.458  26.331  25.728
 
 BZINTS: Fermi energy:    9.380628;  156.000000 electrons
         Band energy:-0.167940E+04;  BLOECHL correction:   -0.063875

 total amount of memory used by VASP MPI-rank0   193394. kBytes
=======================================================================

   base      :      30000. kBytes
   nonl-proj :     106119. kBytes
   fftplans  :        888. kBytes
   grid      :       6813. kBytes
   one-center:        373. kBytes
   wavefun   :      49201. kBytes
 
  
  
 General timing and accounting informations for this job:
 ========================================================
  
                  Total CPU time used (sec):      189.035
                            User time (sec):      179.480
                          System time (sec):        9.555
                         Elapsed time (sec):      195.264
  
                   Maximum memory used (kb):      870256.
                   Average memory used (kb):          N/A
  
                          Minor page faults:       168690
                          Major page faults:          815
                 Voluntary context switches:         8118
