 vasp.6.4.3 19Mar24 (build Mar 26 2024 14:05:37) complex                        
  
 executed on             LinuxIFC date 2024.12.16  07:34:46
 running  128 mpi-ranks, on    1 nodes
 distrk:  each k-point on   32 cores,    4 groups
 distr:  one band on NCORE=   1 cores,   32 groups


--------------------------------------------------------------------------------------------------------


 INCAR:
   ALGO = All
   EDIFF = 1e-06
   EDIFFG = -0.01
   ENCUT = 520
   GGA = Pe
   IBRION = 2
   ISIF = 4
   ISMEAR = 1
   ISPIN = 2
   KPAR = 4
   LCHARG = True
   LORBIT = 11
   LREAL = False
   LWAVE = False
   MAGMOM = 1*2.789 1*2.791 1*2.789 3*2.791 1*2.789 1*2.791 1*2.789 1*0.296 2*0.297
   NELM = 200
   NSW = 100
   PREC = Accurate
   SIGMA = 0.2

 POTCAR:    PAW_PBE Fe_pv 02Aug2007               
 POTCAR:    PAW_PBE Pt 04Feb2005                  
 -----------------------------------------------------------------------------
|                                                                             |
|           W    W    AA    RRRRR   N    N  II  N    N   GGGG   !!!           |
|           W    W   A  A   R    R  NN   N  II  NN   N  G    G  !!!           |
|           W    W  A    A  R    R  N N  N  II  N N  N  G       !!!           |
|           W WW W  AAAAAA  RRRRR   N  N N  II  N  N N  G  GGG   !            |
|           WW  WW  A    A  R   R   N   NN  II  N   NN  G    G                |
|           W    W  A    A  R    R  N    N  II  N    N   GGGG   !!!           |
|                                                                             |
|     For optimal performance we recommend to set                             |
|       NCORE = 2 up to number-of-cores-per-socket                            |
|     NCORE specifies how many cores store one orbital (NPAR=cpu/NCORE).      |
|     This setting can greatly improve the performance of VASP for DFT.       |
|     The default, NCORE=1 might be grossly inefficient on modern             |
|     multi-core architectures or massively parallel machines. Do your        |
|     own testing! More info at https://www.vasp.at/wiki/index.php/NCORE      |
|     Unfortunately you need to use the default for GW and RPA                |
|     calculations (for HF NCORE is supported but not extensively tested      |
|     yet).                                                                   |
|                                                                             |
 -----------------------------------------------------------------------------

 POTCAR:    PAW_PBE Fe_pv 02Aug2007               
   SHA256 =  5d22e414b1f82158bf2c7ecb8b97b28fd0923e48cadc1c3bf74d524558f5dd32 Fe_pv/POTCAR          
   COPYR  = (c) Copyright 02Aug2007 Georg Kresse                                                    
   COPYR  = This file is part of the software VASP. Any use, copying, and all other rights are regul
   COPYR  = If you do not have a valid VASP license, you may not use, copy or distribute this file. 
   VRHFIN =Fe:  3pd7s1                                                                              
   LEXCH  = PE                                                                                      
   EATOM  =  2457.4239 eV,  180.6156 Ry                                                             
                                                                                                    
   TITEL  = PAW_PBE Fe_pv 02Aug2007                                                                 
   LULTRA =        F    use ultrasoft PP ?                                                          
   IUNSCR =        1    unscreen: 0-lin 1-nonlin 2-no                                               
   RPACOR =    1.750    partial core radius                                                         
   POMASS =   55.847; ZVAL   =   14.000    mass and valenz                                          
   RCORE  =    2.200    outmost cutoff radius                                                       
   RWIGS  =    2.200; RWIGS  =    1.164    wigner-seitz radius (au A)                               
   ENMAX  =  293.238; ENMIN  =  219.928 eV                                                          
   ICORE  =        3    local potential                                                             
   LCOR   =        T    correct aug charges                                                         
   LPAW   =        T    paw PP                                                                      
   EAUG   =  578.342                                                                                
   DEXC   =    0.000                                                                                
   RMAX   =    2.249    core radius for proj-oper                                                   
   RAUG   =    1.300    factor for augmentation sphere                                              
   RDEP   =    2.296    radius for radial grids                                                     
   RDEPT  =    1.766    core radius for aug-charge                                                  
                                                                                                    
   Atomic configuration                                                                             
    8 entries                                                                                       
     n  l   j            E        occ.                                                              
     1  0  0.50     -6993.8440   2.0000                                                             
     2  0  0.50      -814.6047   2.0000                                                             
     2  1  1.50      -693.3689   6.0000                                                             
     3  0  0.50       -89.4732   2.0000                                                             
     3  1  1.50       -55.6373   6.0000                                                             
     3  2  2.50        -3.8151   7.0000                                                             
     4  0  0.50        -4.2551   1.0000                                                             
     4  3  2.50        -1.3606   0.0000                                                             
   Description                                                                                      
     l       E           TYP  RCUT    TYP  RCUT                                                     
     1    -55.6372668     23  2.000                                                                 
     1     -5.4423304     23  2.000                                                                 
     2     -3.8151096     23  2.200                                                                 
     2     -5.1756922     23  2.200                                                                 
     0     -4.2550951     23  2.200                                                                 
     0     27.2116520     23  2.200                                                                 
     3     -1.3605826     23  2.200                                                                 
  local pseudopotential read in
  partial core-charges read in
  partial kinetic energy density read in
  atomic valenz-charges read in
  non local Contribution for L=           1  read in
    real space projection operators read in
  non local Contribution for L=           1  read in
    real space projection operators read in
  non local Contribution for L=           2  read in
    real space projection operators read in
  non local Contribution for L=           2  read in
    real space projection operators read in
  non local Contribution for L=           0  read in
    real space projection operators read in
  non local Contribution for L=           0  read in
    real space projection operators read in
    PAW grid and wavefunctions read in
 
   number of l-projection  operators is LMAX  =           6
   number of lm-projection operators is LMMAX =          18
 
 POTCAR:    PAW_PBE Pt 04Feb2005                  
   SHA256 =  3ed90460adef76debcff1cfb73ee1349b515b1a3db03439735b44de3a8db7dc8 Pt/POTCAR             
   COPYR  = (c) Copyright 04Feb2005 Georg Kresse                                                    
   COPYR  = This file is part of the software VASP. Any use, copying, and all other rights are regul
   COPYR  = If you do not have a valid VASP license, you may not use, copy or distribute this file. 
   VRHFIN =Pt: s1d9                                                                                 
   LEXCH  = PE                                                                                      
   EATOM  =   729.1176 eV,   53.5886 Ry                                                             
                                                                                                    
   TITEL  = PAW_PBE Pt 04Feb2005                                                                    
   LULTRA =        F    use ultrasoft PP ?                                                          
   IUNSCR =        1    unscreen: 0-lin 1-nonlin 2-no                                               
   RPACOR =    2.330    partial core radius                                                         
   POMASS =  195.080; ZVAL   =   10.000    mass and valenz                                          
   RCORE  =    2.600    outmost cutoff radius                                                       
   RWIGS  =    2.750; RWIGS  =    1.455    wigner-seitz radius (au A)                               
   ENMAX  =  230.283; ENMIN  =  172.712 eV                                                          
   ICORE  =        3    local potential                                                             
   LCOR   =        T    correct aug charges                                                         
   LPAW   =        T    paw PP                                                                      
   EAUG   =  358.966                                                                                
   DEXC   =    0.000                                                                                
   RMAX   =    2.658    core radius for proj-oper                                                   
   RAUG   =    1.300    factor for augmentation sphere                                              
   RDEP   =    2.761    radius for radial grids                                                     
   RDEPT  =    2.203    core radius for aug-charge                                                  
                                                                                                    
   Atomic configuration                                                                             
   16 entries                                                                                       
     n  l   j            E        occ.                                                              
     1  0  0.50    -78401.1885   2.0000                                                             
     2  0  0.50    -13770.7750   2.0000                                                             
     2  1  1.50    -11931.0468   6.0000                                                             
     3  0  0.50     -3234.7234   2.0000                                                             
     3  1  1.50     -2699.2216   6.0000                                                             
     3  2  2.50     -2119.5714  10.0000                                                             
     4  0  0.50      -695.1528   2.0000                                                             
     4  1  1.50      -519.6034   6.0000                                                             
     4  2  2.50      -306.6786  10.0000                                                             
     4  3  3.50       -70.1041  14.0000                                                             
     5  0  0.50      -101.7747   2.0000                                                             
     5  1  1.50       -55.9873   6.0000                                                             
     5  2  2.50        -6.1423   9.0000                                                             
     6  0  0.50        -5.6573   1.0000                                                             
     6  1  1.50        -6.8029   0.0000                                                             
     5  3  2.50        -1.3606   0.0000                                                             
   Description                                                                                      
     l       E           TYP  RCUT    TYP  RCUT                                                     
     2     -6.1423404     23  2.500                                                                 
     2     -7.5029230     23  2.500                                                                 
     0     -5.6573207     23  2.500                                                                 
     0      0.7416693     23  2.500                                                                 
     1     -2.7211652     23  2.600                                                                 
     1     20.4087390     23  2.600                                                                 
     3     -1.3605826     23  2.500                                                                 
  local pseudopotential read in
  partial core-charges read in
  partial kinetic energy density read in
  atomic valenz-charges read in
  non local Contribution for L=           2  read in
    real space projection operators read in
  non local Contribution for L=           2  read in
    real space projection operators read in
  non local Contribution for L=           0  read in
    real space projection operators read in
  non local Contribution for L=           0  read in
    real space projection operators read in
  non local Contribution for L=           1  read in
    real space projection operators read in
  non local Contribution for L=           1  read in
    real space projection operators read in
    PAW grid and wavefunctions read in
 
   number of l-projection  operators is LMAX  =           6
   number of lm-projection operators is LMMAX =          18
 
  PAW_PBE Fe_pv 02Aug2007               :
 energy of atom  1       EATOM=-2457.4239
 kinetic energy error for atom=    0.0062 (will be added to EATOM!!)
  PAW_PBE Pt 04Feb2005                  :
 energy of atom  2       EATOM= -729.1176
 kinetic energy error for atom=    0.0032 (will be added to EATOM!!)
 
 
 POSCAR: Fe9 Pt3
  positions in direct lattice
  No initial velocities read in


 exchange-correlation table for PE
   RHO(1)=    0.500       N(1)  =     2000
   RHO(2)=  100.500       N(2)  =     4000
 


--------------------------------------------------------------------------------------------------------


 ion  position               nearest neighbor table
   1  0.000  0.500  0.167-   7 2.66   7 2.66   7 2.66   7 2.66  10 2.66   4 2.66  10 2.66   4 2.66
                            11 2.66  11 2.66   5 2.66   5 2.66
   2  0.000  0.500  0.500-   8 2.66   8 2.66   8 2.66   8 2.66   5 2.66   6 2.66   5 2.66   6 2.66
                            12 2.66  11 2.66  11 2.66  12 2.66
   3  0.000  0.500  0.833-   9 2.66   9 2.66   9 2.66   9 2.66  10 2.66   4 2.66  10 2.66   4 2.66
                            12 2.66  12 2.66   6 2.66   6 2.66
   4  0.500  0.500  0.000-  10 2.66  10 2.66  10 2.66  10 2.66   1 2.66   7 2.66   9 2.66   3 2.66
                             1 2.66   3 2.66   7 2.66   9 2.66
   5  0.500  0.500  0.333-  11 2.66  11 2.66  11 2.66  11 2.66   7 2.66   1 2.66   1 2.66   7 2.66
                             8 2.66   2 2.66   8 2.66   2 2.66
   6  0.500  0.500  0.667-  12 2.66  12 2.66  12 2.66  12 2.66   9 2.66   3 2.66   3 2.66   9 2.66
                             2 2.66   8 2.66   2 2.66   8 2.66
   7  0.500  0.000  0.167-   1 2.66   1 2.66   1 2.66   1 2.66   4 2.66  10 2.66  10 2.66   4 2.66
                            11 2.66  11 2.66   5 2.66   5 2.66
   8  0.500  0.000  0.500-   2 2.66   2 2.66   2 2.66   2 2.66   5 2.66   6 2.66   6 2.66   5 2.66
                            12 2.66  11 2.66  12 2.66  11 2.66
   9  0.500  0.000  0.833-   3 2.66   3 2.66   3 2.66   3 2.66   4 2.66  10 2.66  10 2.66   4 2.66
                            12 2.66  12 2.66   6 2.66   6 2.66
  10  0.000  0.000  0.000-   4 2.66   4 2.66   4 2.66   4 2.66   9 2.66   1 2.66   3 2.66   3 2.66
                             1 2.66   7 2.66   9 2.66   7 2.66
  11  0.000  0.000  0.333-   5 2.66   5 2.66   5 2.66   5 2.66   1 2.66   7 2.66   7 2.66   1 2.66
                             2 2.66   2 2.66   8 2.66   8 2.66
  12  0.000  0.000  0.667-   6 2.66   6 2.66   6 2.66   6 2.66   3 2.66   9 2.66   9 2.66   3 2.66
                             2 2.66   8 2.66   8 2.66   2 2.66
 
  LATTYP: Found a simple tetragonal cell.
 ALAT       =     3.7628658321
 C/A-ratio  =     3.0030584293
  
  Lattice vectors:
  
 A1 = (   3.7628658321,   0.0000000000,   0.0000000000)
 A2 = (   0.0000000000,   3.7628658321,   0.0000000000)
 A3 = (   0.0000000000,   0.0000000000,  11.3001059555)


Analysis of symmetry for initial positions (statically):
=====================================================================
 Subroutine PRICEL returns:
 Original cell was already a primitive cell.
 

 Routine SETGRP: Setting up the symmetry group for a 
 simple tetragonal supercell.


 Subroutine GETGRP returns: Found 16 space group operations
 (whereof 16 operations were pure point group operations)
 out of a pool of 16 trial point group operations.


The static configuration has the point symmetry D_4h.


Analysis of symmetry for dynamics (positions and initial velocities):
=====================================================================
 Subroutine PRICEL returns:
 Original cell was already a primitive cell.
 

 Routine SETGRP: Setting up the symmetry group for a 
 simple tetragonal supercell.


 Subroutine GETGRP returns: Found 16 space group operations
 (whereof 16 operations were pure point group operations)
 out of a pool of 16 trial point group operations.


The dynamic configuration has the point symmetry D_4h.


Analysis of structural, dynamic, and magnetic symmetry:
=====================================================================
 Subroutine PRICEL returns:
 Original cell was already a primitive cell.
 

 Routine SETGRP: Setting up the symmetry group for a 
 simple tetragonal supercell.


 Subroutine GETGRP returns: Found 16 space group operations
 (whereof 16 operations were pure point group operations)
 out of a pool of 16 trial point group operations.


The overall configuration has the point symmetry D_4h.


 Subroutine INISYM returns: Found 16 space group operations
 (whereof 16 operations are pure point group operations),
 and found     1 'primitive' translations


----------------------------------------------------------------------------------------

                                     Primitive cell                                     

  volume of cell :     160.0000

  direct lattice vectors                    reciprocal lattice vectors
     3.762865832  0.000000000  0.000000000     0.265754891  0.000000000  0.000000000
     0.000000000  3.762865832  0.000000000     0.000000000  0.265754891  0.000000000
     0.000000000  0.000000000 11.300105956     0.000000000  0.000000000  0.088494745

  length of vectors
     3.762865832  3.762865832 11.300105956     0.265754891  0.265754891  0.088494745

  position of ions in fractional coordinates (direct lattice)
     0.000000000  0.500000000  0.166618398
     0.000000000  0.500000000  0.500000000
     0.000000000  0.500000000  0.833381602
     0.500000000  0.500000000  0.000000000
     0.500000000  0.500000000  0.333302528
     0.500000000  0.500000000  0.666697472
     0.500000000  0.000000000  0.166618398
     0.500000000  0.000000000  0.500000000
     0.500000000  0.000000000  0.833381602
     0.000000000  0.000000000  0.000000000
     0.000000000  0.000000000  0.333296309
     0.000000000  0.000000000  0.666703691

  ion indices of the primitive-cell ions
   primitive index   ion index
                 1           1
                 2           2
                 3           3
                 4           4
                 5           5
                 6           6
                 7           7
                 8           8
                 9           9
                10          10
                11          11
                12          12

----------------------------------------------------------------------------------------

 
 
 KPOINTS: pymatgen with grid density = 8800 / numb

Automatic generation of k-mesh.
 Grid dimensions read from file:
 generate k-points for:   13   13    4

 Generating k-lattice:

  Cartesian coordinates                     Fractional coordinates (reciprocal lattice)
     0.020442684  0.000000000  0.000000000     0.076923077  0.000000000  0.000000000
     0.000000000  0.020442684  0.000000000     0.000000000  0.076923077  0.000000000
     0.000000000  0.000000000  0.022123686     0.000000000  0.000000000  0.250000000

  Length of vectors
     0.020442684  0.020442684  0.022123686

  Shift w.r.t. Gamma in fractional coordinates (k-lattice)
     0.000000000  0.000000000  0.000000000

 
 Subroutine IBZKPT returns following result:
 ===========================================
 
 Found     84 irreducible k-points:
 
 Following reciprocal coordinates:
            Coordinates               Weight
  0.000000  0.000000  0.000000      1.000000
  0.076923  0.000000  0.000000      4.000000
  0.153846  0.000000  0.000000      4.000000
  0.230769  0.000000  0.000000      4.000000
  0.307692  0.000000  0.000000      4.000000
  0.384615  0.000000  0.000000      4.000000
  0.461538  0.000000  0.000000      4.000000
  0.076923  0.076923  0.000000      4.000000
  0.153846  0.076923  0.000000      8.000000
  0.230769  0.076923  0.000000      8.000000
  0.307692  0.076923  0.000000      8.000000
  0.384615  0.076923  0.000000      8.000000
  0.461538  0.076923  0.000000      8.000000
  0.153846  0.153846  0.000000      4.000000
  0.230769  0.153846  0.000000      8.000000
  0.307692  0.153846  0.000000      8.000000
  0.384615  0.153846  0.000000      8.000000
  0.461538  0.153846  0.000000      8.000000
  0.230769  0.230769  0.000000      4.000000
  0.307692  0.230769  0.000000      8.000000
  0.384615  0.230769  0.000000      8.000000
  0.461538  0.230769  0.000000      8.000000
  0.307692  0.307692  0.000000      4.000000
  0.384615  0.307692  0.000000      8.000000
  0.461538  0.307692  0.000000      8.000000
  0.384615  0.384615  0.000000      4.000000
  0.461538  0.384615  0.000000      8.000000
  0.461538  0.461538  0.000000      4.000000
  0.000000  0.000000  0.250000      2.000000
  0.076923  0.000000  0.250000      8.000000
  0.153846  0.000000  0.250000      8.000000
  0.230769  0.000000  0.250000      8.000000
  0.307692  0.000000  0.250000      8.000000
  0.384615  0.000000  0.250000      8.000000
  0.461538  0.000000  0.250000      8.000000
  0.076923  0.076923  0.250000      8.000000
  0.153846  0.076923  0.250000     16.000000
  0.230769  0.076923  0.250000     16.000000
  0.307692  0.076923  0.250000     16.000000
  0.384615  0.076923  0.250000     16.000000
  0.461538  0.076923  0.250000     16.000000
  0.153846  0.153846  0.250000      8.000000
  0.230769  0.153846  0.250000     16.000000
  0.307692  0.153846  0.250000     16.000000
  0.384615  0.153846  0.250000     16.000000
  0.461538  0.153846  0.250000     16.000000
  0.230769  0.230769  0.250000      8.000000
  0.307692  0.230769  0.250000     16.000000
  0.384615  0.230769  0.250000     16.000000
  0.461538  0.230769  0.250000     16.000000
  0.307692  0.307692  0.250000      8.000000
  0.384615  0.307692  0.250000     16.000000
  0.461538  0.307692  0.250000     16.000000
  0.384615  0.384615  0.250000      8.000000
  0.461538  0.384615  0.250000     16.000000
  0.461538  0.461538  0.250000      8.000000
  0.000000  0.000000  0.500000      1.000000
  0.076923  0.000000  0.500000      4.000000
  0.153846  0.000000  0.500000      4.000000
  0.230769  0.000000  0.500000      4.000000
  0.307692  0.000000  0.500000      4.000000
  0.384615  0.000000  0.500000      4.000000
  0.461538  0.000000  0.500000      4.000000
  0.076923  0.076923  0.500000      4.000000
  0.153846  0.076923  0.500000      8.000000
  0.230769  0.076923  0.500000      8.000000
  0.307692  0.076923  0.500000      8.000000
  0.384615  0.076923  0.500000      8.000000
  0.461538  0.076923  0.500000      8.000000
  0.153846  0.153846  0.500000      4.000000
  0.230769  0.153846  0.500000      8.000000
  0.307692  0.153846  0.500000      8.000000
  0.384615  0.153846  0.500000      8.000000
  0.461538  0.153846  0.500000      8.000000
  0.230769  0.230769  0.500000      4.000000
  0.307692  0.230769  0.500000      8.000000
  0.384615  0.230769  0.500000      8.000000
  0.461538  0.230769  0.500000      8.000000
  0.307692  0.307692  0.500000      4.000000
  0.384615  0.307692  0.500000      8.000000
  0.461538  0.307692  0.500000      8.000000
  0.384615  0.384615  0.500000      4.000000
  0.461538  0.384615  0.500000      8.000000
  0.461538  0.461538  0.500000      4.000000
 
 Following cartesian coordinates:
            Coordinates               Weight
  0.000000  0.000000  0.000000      1.000000
  0.020443  0.000000  0.000000      4.000000
  0.040885  0.000000  0.000000      4.000000
  0.061328  0.000000  0.000000      4.000000
  0.081771  0.000000  0.000000      4.000000
  0.102213  0.000000  0.000000      4.000000
  0.122656  0.000000  0.000000      4.000000
  0.020443  0.020443  0.000000      4.000000
  0.040885  0.020443  0.000000      8.000000
  0.061328  0.020443  0.000000      8.000000
  0.081771  0.020443  0.000000      8.000000
  0.102213  0.020443  0.000000      8.000000
  0.122656  0.020443  0.000000      8.000000
  0.040885  0.040885  0.000000      4.000000
  0.061328  0.040885  0.000000      8.000000
  0.081771  0.040885  0.000000      8.000000
  0.102213  0.040885  0.000000      8.000000
  0.122656  0.040885  0.000000      8.000000
  0.061328  0.061328  0.000000      4.000000
  0.081771  0.061328  0.000000      8.000000
  0.102213  0.061328  0.000000      8.000000
  0.122656  0.061328  0.000000      8.000000
  0.081771  0.081771  0.000000      4.000000
  0.102213  0.081771  0.000000      8.000000
  0.122656  0.081771  0.000000      8.000000
  0.102213  0.102213  0.000000      4.000000
  0.122656  0.102213  0.000000      8.000000
  0.122656  0.122656  0.000000      4.000000
  0.000000  0.000000  0.022124      2.000000
  0.020443  0.000000  0.022124      8.000000
  0.040885  0.000000  0.022124      8.000000
  0.061328  0.000000  0.022124      8.000000
  0.081771  0.000000  0.022124      8.000000
  0.102213  0.000000  0.022124      8.000000
  0.122656  0.000000  0.022124      8.000000
  0.020443  0.020443  0.022124      8.000000
  0.040885  0.020443  0.022124     16.000000
  0.061328  0.020443  0.022124     16.000000
  0.081771  0.020443  0.022124     16.000000
  0.102213  0.020443  0.022124     16.000000
  0.122656  0.020443  0.022124     16.000000
  0.040885  0.040885  0.022124      8.000000
  0.061328  0.040885  0.022124     16.000000
  0.081771  0.040885  0.022124     16.000000
  0.102213  0.040885  0.022124     16.000000
  0.122656  0.040885  0.022124     16.000000
  0.061328  0.061328  0.022124      8.000000
  0.081771  0.061328  0.022124     16.000000
  0.102213  0.061328  0.022124     16.000000
  0.122656  0.061328  0.022124     16.000000
  0.081771  0.081771  0.022124      8.000000
  0.102213  0.081771  0.022124     16.000000
  0.122656  0.081771  0.022124     16.000000
  0.102213  0.102213  0.022124      8.000000
  0.122656  0.102213  0.022124     16.000000
  0.122656  0.122656  0.022124      8.000000
  0.000000  0.000000  0.044247      1.000000
  0.020443  0.000000  0.044247      4.000000
  0.040885  0.000000  0.044247      4.000000
  0.061328  0.000000  0.044247      4.000000
  0.081771  0.000000  0.044247      4.000000
  0.102213  0.000000  0.044247      4.000000
  0.122656  0.000000  0.044247      4.000000
  0.020443  0.020443  0.044247      4.000000
  0.040885  0.020443  0.044247      8.000000
  0.061328  0.020443  0.044247      8.000000
  0.081771  0.020443  0.044247      8.000000
  0.102213  0.020443  0.044247      8.000000
  0.122656  0.020443  0.044247      8.000000
  0.040885  0.040885  0.044247      4.000000
  0.061328  0.040885  0.044247      8.000000
  0.081771  0.040885  0.044247      8.000000
  0.102213  0.040885  0.044247      8.000000
  0.122656  0.040885  0.044247      8.000000
  0.061328  0.061328  0.044247      4.000000
  0.081771  0.061328  0.044247      8.000000
  0.102213  0.061328  0.044247      8.000000
  0.122656  0.061328  0.044247      8.000000
  0.081771  0.081771  0.044247      4.000000
  0.102213  0.081771  0.044247      8.000000
  0.122656  0.081771  0.044247      8.000000
  0.102213  0.102213  0.044247      4.000000
  0.122656  0.102213  0.044247      8.000000
  0.122656  0.122656  0.044247      4.000000
 


--------------------------------------------------------------------------------------------------------




 Dimension of arrays:
   k-points           NKPTS =     84   k-points in BZ     NKDIM =     84   number of bands    NBANDS=    128
   number of dos      NEDOS =    301   number of ions     NIONS =     12
   non local maximal  LDIM  =      6   non local SUM 2l+1 LMDIM =     18
   total plane-waves  NPLWV =  65856
   max r-space proj   IRMAX =      1   max aug-charges    IRDMAX=  25126
   dimension x,y,z NGX =    28 NGY =   28 NGZ =   84
   dimension x,y,z NGXF=    56 NGYF=   56 NGZF=  168
   support grid    NGXF=    56 NGYF=   56 NGZF=  168
   ions per type =               9   3
   NGX,Y,Z   is equivalent  to a cutoff of  12.37, 12.37, 12.36 a.u.
   NGXF,Y,Z  is equivalent  to a cutoff of  24.74, 24.74, 24.72 a.u.

 SYSTEM =  unknown system                          
 POSCAR =  Fe9 Pt3                                 

 Startparameter for this run:
   NWRITE =      2    write-flag & timer
   PREC   = accura    normal or accurate (medium, high low for compatibility)
   ISTART =      0    job   : 0-new  1-cont  2-samecut
   ICHARG =      2    charge: 1-file 2-atom 10-const
   ISPIN  =      2    spin polarized calculation?
   LNONCOLLINEAR =      F non collinear calculations
   LSORBIT =      F    spin-orbit coupling
   INIWAV =      1    electr: 0-lowe 1-rand  2-diag
   LASPH  =      F    aspherical Exc in radial PAW
 Electronic Relaxation 1
   ENCUT  =  520.0 eV  38.22 Ry    6.18 a.u.   7.00  7.00 21.01*2*pi/ulx,y,z
   ENINI  =  520.0     initial cutoff
   ENAUG  =  578.3 eV  augmentation charge cutoff
   NELM   =    200;   NELMIN=  2; NELMDL=  0     # of ELM steps 
   EDIFF  = 0.1E-05   stopping-criterion for ELM
   LREAL  =      F    real-space projection
   NLSPLINE    = F    spline interpolate recip. space projectors
   LCOMPAT=      F    compatible to vasp.4.4
   GGA_COMPAT  = T    GGA compatible to vasp.4.4-vasp.4.6
   LMAXPAW     = -100 max onsite density
   LMAXMIX     =    2 max onsite mixed and CHGCAR
   VOSKOWN=      0    Vosko Wilk Nusair interpolation
   ROPT   =    0.00000   0.00000
 Ionic relaxation
   EDIFFG = -.1E-01   stopping-criterion for IOM
   NSW    =    100    number of steps for IOM
   NBLOCK =      1;   KBLOCK =    100    inner block; outer block 
   IBRION =      2    ionic relax: 0-MD 1-quasi-New 2-CG
   NFREE  =      1    steps in history (QN), initial steepest desc. (CG)
   ISIF   =      4    stress and relaxation
   IWAVPR =     11    prediction:  0-non 1-charg 2-wave 3-comb
   ISYM   =      2    0-nonsym 1-usesym 2-fastsym
   LCORR  =      T    Harris-Foulkes like correction to forces

   POTIM  = 0.5000    time-step for ionic-motion
   TEIN   =    0.0    initial temperature
   TEBEG  =    0.0;   TEEND  =   0.0 temperature during run
   SMASS  =  -3.00    Nose mass-parameter (am)
   estimated Nose-frequenzy (Omega)   =  0.10E-29 period in steps = 0.13E+47 mass=  -0.324E-27a.u.
   SCALEE = 1.0000    scale energy and forces
   NPACO  =    256;   APACO  = 10.0  distance and # of slots for P.C.
   PSTRESS=    0.0 pullay stress

  Mass of Ions in am
   POMASS =  55.85195.08
  Ionic Valenz
   ZVAL   =  14.00 10.00
  Atomic Wigner-Seitz radii
   RWIGS  =  -1.00 -1.00
  virtual crystal weights 
   VCA    =   1.00  1.00
   NELECT =     156.0000    total number of electrons
   NUPDOWN=      -1.0000    fix difference up-down

 DOS related values:
   EMIN   =  10.00;   EMAX   =-10.00  energy-range for DOS
   EFERMI =   0.00;   METHOD = LEGACY      
   ISMEAR =     1;   SIGMA  =   0.20  broadening in eV -4-tet -1-fermi 0-gaus

 Electronic relaxation 2 (details)
   IALGO  =     58    algorithm
   LDIAG  =      T    sub-space diagonalisation (order eigenvalues)
   LSUBROT=      F    optimize rotation matrix (better conditioning)
   TURBO    =      0    0=normal 1=particle mesh
   IRESTART =      0    0=no restart 2=restart with 2 vectors
   NREBOOT  =      0    no. of reboots
   NMIN     =      0    reboot dimension
   EREF     =   0.00    reference energy to select bands
   IMIX   =      4    mixing-type and parameters
     AMIX     =   0.40;   BMIX     =  1.00
     AMIX_MAG =   1.60;   BMIX_MAG =  1.00
     AMIN     =   0.10
     WC   =   100.;   INIMIX=   1;  MIXPRE=   1;  MAXMIX= -45

 Intra band minimization:
   WEIMIN = 0.0010     energy-eigenvalue tresh-hold
   EBREAK =  0.20E-08  absolut break condition
   DEPER  =   0.30     relativ break condition  

   TIME   =   0.40     timestep for ELM

  volume/ion in A,a.u.               =      13.33        89.98
  Fermi-wavevector in a.u.,A,eV,Ry     =   1.623341  3.067669 35.854553  2.635235
  Thomas-Fermi vector in A             =   2.716807
 
 Write flags
   LWAVE        =      F    write WAVECAR
   LDOWNSAMPLE  =      F    k-point downsampling of WAVECAR
   LCHARG       =      T    write CHGCAR
   LVTOT        =      F    write LOCPOT, total local potential
   LVHAR        =      F    write LOCPOT, Hartree potential only
   WRT_POTENTIAL= false  ! write potential to hdf5 file
   LELF         =      F    write electronic localiz. function (ELF)
   LORBIT       =     11    0 simple, 1 ext, 2 COOP (PROOUT), +10 PAW based schemes


 Dipole corrections
   LMONO      =      F    monopole corrections only (constant potential shift)
   LDIPOL     =      F    correct potential (dipole corrections)
   IDIPOL     =      0    1-x, 2-y, 3-z, 4-all directions 
   EPSILON    =  1.0000000 bulk dielectric constant
   LVACPOTAV  =      F  vacuum potentials using an averaging scheme for the charge density
   VACPOTFLAT =  0.1000000 required flatness to determine vacuum potential
 Exchange correlation treatment:
   GGA     = PE    functional components
   XC_C    = 1    coefficients multiplying the functional components
   LIBXC   =     F    Libxc                    
   VOSKOWN =     0    Vosko Wilk Nusair interpolation
   LHFCALC =     F    Hartree Fock is set to
   LHFONE  =     F    Hartree Fock one center treatment
   AEXX    =    0.0000 exact exchange contribution

 Parameters of functionals:
   PE:
     No parameter
 
 Van der Waals corrections
   IVDW    =     0    specifies the selected vdW correction

 Linear response parameters
   LEPSILON=     F    determine dielectric tensor
   LRPA    =     F    only Hartree local field effects (RPA)
   LNABLA  =     F    use nabla operator in PAW spheres
   LVEL    =     F    velocity operator in full k-point grid
   CSHIFT  =0.1000    complex shift for real part using Kramers Kronig
   OMEGAMAX=  -1.0    maximum frequency
   DEG_THRESHOLD= 0.2000000E-02 threshold for treating states as degnerate
   RTIME   =   -0.100 relaxation time in fs
  (WPLASMAI=    0.000 imaginary part of plasma frequency in eV, 0.658/RTIME)
   DFIELD  = 0.0000000 0.0000000 0.0000000 field for delta impulse in time
 
  Optional k-point grid parameters
   LKPOINTS_OPT  =     F    use optional k-point grid
   KPOINTS_OPT_MODE=     1    mode for optional k-point grid
 
 Orbital magnetization related:
   ORBITALMAG=     F  switch on orbital magnetization
   LCHIMAG   =     F  perturbation theory with respect to B field
   DQ        =  0.001000  dq finite difference perturbation B field
   LLRAUG    =     F  two centre corrections for induced B field
   LBONE     =     F  B-component reconstruction in AE one-centre
   LVGVCALC  =     T  calculate vGv susceptibility
   LVGVAPPL  =     F  apply vGv susceptibility instead of pGv for G=0

 Random number generation:
   RANDOM_GENERATOR = DEFAULT
   PCG_SEED         = not used


--------------------------------------------------------------------------------------------------------


 conjugate gradient relaxation of ions
 charge density and potential will be updated during run
 spin polarized calculation
 Conjugate gradient for all bands (Freysoldt, et al. PRB 79, 241103 (2009))
 preconditioned conjugated gradient                                        
 perform sub-space diagonalisation
    before iterative eigenvector-optimisation
 modified Broyden-mixing scheme, WC =      100.0
 initial mixing is a Kerker type mixing with AMIX =  0.4000 and BMIX =      1.0000
 Hartree-type preconditioning will be used
 using additional bands           50
 reciprocal scheme for non local part
 use partial core corrections
 no Harris-corrections to forces 
 use gradient corrections 
 use of overlap-Matrix (Vanderbilt PP)
 Methfessel and Paxton  Order N= 1 SIGMA  =   0.20


--------------------------------------------------------------------------------------------------------


  energy-cutoff  :      520.00
  volume of cell :      160.00
      direct lattice vectors                 reciprocal lattice vectors
     3.762865832  0.000000000  0.000000000     0.265754891  0.000000000  0.000000000
     0.000000000  3.762865832  0.000000000     0.000000000  0.265754891  0.000000000
     0.000000000  0.000000000 11.300105956     0.000000000  0.000000000  0.088494745

  length of vectors
     3.762865832  3.762865832 11.300105956     0.265754891  0.265754891  0.088494745


 
 k-points in units of 2pi/SCALE and weight: pymatgen with grid density = 8800 / numb
   0.00000000  0.00000000  0.00000000       0.001
   0.02044268  0.00000000  0.00000000       0.006
   0.04088537  0.00000000  0.00000000       0.006
   0.06132805  0.00000000  0.00000000       0.006
   0.08177074  0.00000000  0.00000000       0.006
   0.10221342  0.00000000  0.00000000       0.006
   0.12265610  0.00000000  0.00000000       0.006
   0.02044268  0.02044268  0.00000000       0.006
   0.04088537  0.02044268  0.00000000       0.012
   0.06132805  0.02044268  0.00000000       0.012
   0.08177074  0.02044268  0.00000000       0.012
   0.10221342  0.02044268  0.00000000       0.012
   0.12265610  0.02044268  0.00000000       0.012
   0.04088537  0.04088537  0.00000000       0.006
   0.06132805  0.04088537  0.00000000       0.012
   0.08177074  0.04088537  0.00000000       0.012
   0.10221342  0.04088537  0.00000000       0.012
   0.12265610  0.04088537  0.00000000       0.012
   0.06132805  0.06132805  0.00000000       0.006
   0.08177074  0.06132805  0.00000000       0.012
   0.10221342  0.06132805  0.00000000       0.012
   0.12265610  0.06132805  0.00000000       0.012
   0.08177074  0.08177074  0.00000000       0.006
   0.10221342  0.08177074  0.00000000       0.012
   0.12265610  0.08177074  0.00000000       0.012
   0.10221342  0.10221342  0.00000000       0.006
   0.12265610  0.10221342  0.00000000       0.012
   0.12265610  0.12265610  0.00000000       0.006
   0.00000000  0.00000000  0.02212369       0.003
   0.02044268  0.00000000  0.02212369       0.012
   0.04088537  0.00000000  0.02212369       0.012
   0.06132805  0.00000000  0.02212369       0.012
   0.08177074  0.00000000  0.02212369       0.012
   0.10221342  0.00000000  0.02212369       0.012
   0.12265610  0.00000000  0.02212369       0.012
   0.02044268  0.02044268  0.02212369       0.012
   0.04088537  0.02044268  0.02212369       0.024
   0.06132805  0.02044268  0.02212369       0.024
   0.08177074  0.02044268  0.02212369       0.024
   0.10221342  0.02044268  0.02212369       0.024
   0.12265610  0.02044268  0.02212369       0.024
   0.04088537  0.04088537  0.02212369       0.012
   0.06132805  0.04088537  0.02212369       0.024
   0.08177074  0.04088537  0.02212369       0.024
   0.10221342  0.04088537  0.02212369       0.024
   0.12265610  0.04088537  0.02212369       0.024
   0.06132805  0.06132805  0.02212369       0.012
   0.08177074  0.06132805  0.02212369       0.024
   0.10221342  0.06132805  0.02212369       0.024
   0.12265610  0.06132805  0.02212369       0.024
   0.08177074  0.08177074  0.02212369       0.012
   0.10221342  0.08177074  0.02212369       0.024
   0.12265610  0.08177074  0.02212369       0.024
   0.10221342  0.10221342  0.02212369       0.012
   0.12265610  0.10221342  0.02212369       0.024
   0.12265610  0.12265610  0.02212369       0.012
   0.00000000  0.00000000  0.04424737       0.001
   0.02044268  0.00000000  0.04424737       0.006
   0.04088537  0.00000000  0.04424737       0.006
   0.06132805  0.00000000  0.04424737       0.006
   0.08177074  0.00000000  0.04424737       0.006
   0.10221342  0.00000000  0.04424737       0.006
   0.12265610  0.00000000  0.04424737       0.006
   0.02044268  0.02044268  0.04424737       0.006
   0.04088537  0.02044268  0.04424737       0.012
   0.06132805  0.02044268  0.04424737       0.012
   0.08177074  0.02044268  0.04424737       0.012
   0.10221342  0.02044268  0.04424737       0.012
   0.12265610  0.02044268  0.04424737       0.012
   0.04088537  0.04088537  0.04424737       0.006
   0.06132805  0.04088537  0.04424737       0.012
   0.08177074  0.04088537  0.04424737       0.012
   0.10221342  0.04088537  0.04424737       0.012
   0.12265610  0.04088537  0.04424737       0.012
   0.06132805  0.06132805  0.04424737       0.006
   0.08177074  0.06132805  0.04424737       0.012
   0.10221342  0.06132805  0.04424737       0.012
   0.12265610  0.06132805  0.04424737       0.012
   0.08177074  0.08177074  0.04424737       0.006
   0.10221342  0.08177074  0.04424737       0.012
   0.12265610  0.08177074  0.04424737       0.012
   0.10221342  0.10221342  0.04424737       0.006
   0.12265610  0.10221342  0.04424737       0.012
   0.12265610  0.12265610  0.04424737       0.006
 
 k-points in reciprocal lattice and weights: pymatgen with grid density = 8800 / numb
   0.00000000  0.00000000  0.00000000       0.001
   0.07692308  0.00000000  0.00000000       0.006
   0.15384615  0.00000000  0.00000000       0.006
   0.23076923  0.00000000  0.00000000       0.006
   0.30769231  0.00000000  0.00000000       0.006
   0.38461538  0.00000000  0.00000000       0.006
   0.46153846  0.00000000  0.00000000       0.006
   0.07692308  0.07692308  0.00000000       0.006
   0.15384615  0.07692308  0.00000000       0.012
   0.23076923  0.07692308  0.00000000       0.012
   0.30769231  0.07692308  0.00000000       0.012
   0.38461538  0.07692308  0.00000000       0.012
   0.46153846  0.07692308  0.00000000       0.012
   0.15384615  0.15384615  0.00000000       0.006
   0.23076923  0.15384615  0.00000000       0.012
   0.30769231  0.15384615  0.00000000       0.012
   0.38461538  0.15384615  0.00000000       0.012
   0.46153846  0.15384615  0.00000000       0.012
   0.23076923  0.23076923  0.00000000       0.006
   0.30769231  0.23076923  0.00000000       0.012
   0.38461538  0.23076923  0.00000000       0.012
   0.46153846  0.23076923  0.00000000       0.012
   0.30769231  0.30769231  0.00000000       0.006
   0.38461538  0.30769231  0.00000000       0.012
   0.46153846  0.30769231  0.00000000       0.012
   0.38461538  0.38461538  0.00000000       0.006
   0.46153846  0.38461538  0.00000000       0.012
   0.46153846  0.46153846  0.00000000       0.006
   0.00000000  0.00000000  0.25000000       0.003
   0.07692308  0.00000000  0.25000000       0.012
   0.15384615  0.00000000  0.25000000       0.012
   0.23076923  0.00000000  0.25000000       0.012
   0.30769231  0.00000000  0.25000000       0.012
   0.38461538  0.00000000  0.25000000       0.012
   0.46153846  0.00000000  0.25000000       0.012
   0.07692308  0.07692308  0.25000000       0.012
   0.15384615  0.07692308  0.25000000       0.024
   0.23076923  0.07692308  0.25000000       0.024
   0.30769231  0.07692308  0.25000000       0.024
   0.38461538  0.07692308  0.25000000       0.024
   0.46153846  0.07692308  0.25000000       0.024
   0.15384615  0.15384615  0.25000000       0.012
   0.23076923  0.15384615  0.25000000       0.024
   0.30769231  0.15384615  0.25000000       0.024
   0.38461538  0.15384615  0.25000000       0.024
   0.46153846  0.15384615  0.25000000       0.024
   0.23076923  0.23076923  0.25000000       0.012
   0.30769231  0.23076923  0.25000000       0.024
   0.38461538  0.23076923  0.25000000       0.024
   0.46153846  0.23076923  0.25000000       0.024
   0.30769231  0.30769231  0.25000000       0.012
   0.38461538  0.30769231  0.25000000       0.024
   0.46153846  0.30769231  0.25000000       0.024
   0.38461538  0.38461538  0.25000000       0.012
   0.46153846  0.38461538  0.25000000       0.024
   0.46153846  0.46153846  0.25000000       0.012
   0.00000000  0.00000000  0.50000000       0.001
   0.07692308  0.00000000  0.50000000       0.006
   0.15384615  0.00000000  0.50000000       0.006
   0.23076923  0.00000000  0.50000000       0.006
   0.30769231  0.00000000  0.50000000       0.006
   0.38461538  0.00000000  0.50000000       0.006
   0.46153846  0.00000000  0.50000000       0.006
   0.07692308  0.07692308  0.50000000       0.006
   0.15384615  0.07692308  0.50000000       0.012
   0.23076923  0.07692308  0.50000000       0.012
   0.30769231  0.07692308  0.50000000       0.012
   0.38461538  0.07692308  0.50000000       0.012
   0.46153846  0.07692308  0.50000000       0.012
   0.15384615  0.15384615  0.50000000       0.006
   0.23076923  0.15384615  0.50000000       0.012
   0.30769231  0.15384615  0.50000000       0.012
   0.38461538  0.15384615  0.50000000       0.012
   0.46153846  0.15384615  0.50000000       0.012
   0.23076923  0.23076923  0.50000000       0.006
   0.30769231  0.23076923  0.50000000       0.012
   0.38461538  0.23076923  0.50000000       0.012
   0.46153846  0.23076923  0.50000000       0.012
   0.30769231  0.30769231  0.50000000       0.006
   0.38461538  0.30769231  0.50000000       0.012
   0.46153846  0.30769231  0.50000000       0.012
   0.38461538  0.38461538  0.50000000       0.006
   0.46153846  0.38461538  0.50000000       0.012
   0.46153846  0.46153846  0.50000000       0.006
 
 position of ions in fractional coordinates (direct lattice) 
   0.00000000  0.50000000  0.16661840
   0.00000000  0.50000000  0.50000000
   0.00000000  0.50000000  0.83338160
   0.50000000  0.50000000  0.00000000
   0.50000000  0.50000000  0.33330253
   0.50000000  0.50000000  0.66669747
   0.50000000  0.00000000  0.16661840
   0.50000000  0.00000000  0.50000000
   0.50000000  0.00000000  0.83338160
   0.00000000  0.00000000  0.00000000
   0.00000000  0.00000000  0.33329631
   0.00000000  0.00000000  0.66670369
 
 position of ions in cartesian coordinates  (Angst):
   0.00000000  1.88143292  1.88280555
   0.00000000  1.88143292  5.65005298
   0.00000000  1.88143292  9.41730040
   1.88143292  1.88143292  0.00000000
   1.88143292  1.88143292  3.76635388
   1.88143292  1.88143292  7.53375208
   1.88143292  0.00000000  1.88280555
   1.88143292  0.00000000  5.65005298
   1.88143292  0.00000000  9.41730040
   0.00000000  0.00000000  0.00000000
   0.00000000  0.00000000  3.76628360
   0.00000000  0.00000000  7.53382235
 


--------------------------------------------------------------------------------------------------------


 k-point     1 :   0.0000 0.0000 0.0000  plane waves:    4235
 k-point     2 :   0.0769 0.0000 0.0000  plane waves:    4256
 k-point     3 :   0.1538 0.0000 0.0000  plane waves:    4268
 k-point     4 :   0.2308 0.0000 0.0000  plane waves:    4298
 k-point     5 :   0.3077 0.0000 0.0000  plane waves:    4298
 k-point     6 :   0.3846 0.0000 0.0000  plane waves:    4294
 k-point     7 :   0.4615 0.0000 0.0000  plane waves:    4300
 k-point     8 :   0.0769 0.0769 0.0000  plane waves:    4282
 k-point     9 :   0.1538 0.0769 0.0000  plane waves:    4277
 k-point    10 :   0.2308 0.0769 0.0000  plane waves:    4283
 k-point    11 :   0.3077 0.0769 0.0000  plane waves:    4302
 k-point    12 :   0.3846 0.0769 0.0000  plane waves:    4315
 k-point    13 :   0.4615 0.0769 0.0000  plane waves:    4315
 k-point    14 :   0.1538 0.1538 0.0000  plane waves:    4290
 k-point    15 :   0.2308 0.1538 0.0000  plane waves:    4300
 k-point    16 :   0.3077 0.1538 0.0000  plane waves:    4309
 k-point    17 :   0.3846 0.1538 0.0000  plane waves:    4316
 k-point    18 :   0.4615 0.1538 0.0000  plane waves:    4318
 k-point    19 :   0.2308 0.2308 0.0000  plane waves:    4278
 k-point    20 :   0.3077 0.2308 0.0000  plane waves:    4316
 k-point    21 :   0.3846 0.2308 0.0000  plane waves:    4318
 k-point    22 :   0.4615 0.2308 0.0000  plane waves:    4332
 k-point    23 :   0.3077 0.3077 0.0000  plane waves:    4338
 k-point    24 :   0.3846 0.3077 0.0000  plane waves:    4326
 k-point    25 :   0.4615 0.3077 0.0000  plane waves:    4309
 k-point    26 :   0.3846 0.3846 0.0000  plane waves:    4316
 k-point    27 :   0.4615 0.3846 0.0000  plane waves:    4316
 k-point    28 :   0.4615 0.4615 0.0000  plane waves:    4332
 k-point    29 :   0.0000 0.0000 0.2500  plane waves:    4250
 k-point    30 :   0.0769 0.0000 0.2500  plane waves:    4269
 k-point    31 :   0.1538 0.0000 0.2500  plane waves:    4283
 k-point    32 :   0.2308 0.0000 0.2500  plane waves:    4281
 k-point    33 :   0.3077 0.0000 0.2500  plane waves:    4295
 k-point    34 :   0.3846 0.0000 0.2500  plane waves:    4292
 k-point    35 :   0.4615 0.0000 0.2500  plane waves:    4306
 k-point    36 :   0.0769 0.0769 0.2500  plane waves:    4274
 k-point    37 :   0.1538 0.0769 0.2500  plane waves:    4287
 k-point    38 :   0.2308 0.0769 0.2500  plane waves:    4291
 k-point    39 :   0.3077 0.0769 0.2500  plane waves:    4299
 k-point    40 :   0.3846 0.0769 0.2500  plane waves:    4312
 k-point    41 :   0.4615 0.0769 0.2500  plane waves:    4321
 k-point    42 :   0.1538 0.1538 0.2500  plane waves:    4292
 k-point    43 :   0.2308 0.1538 0.2500  plane waves:    4306
 k-point    44 :   0.3077 0.1538 0.2500  plane waves:    4306
 k-point    45 :   0.3846 0.1538 0.2500  plane waves:    4317
 k-point    46 :   0.4615 0.1538 0.2500  plane waves:    4316
 k-point    47 :   0.2308 0.2308 0.2500  plane waves:    4315
 k-point    48 :   0.3077 0.2308 0.2500  plane waves:    4310
 k-point    49 :   0.3846 0.2308 0.2500  plane waves:    4327
 k-point    50 :   0.4615 0.2308 0.2500  plane waves:    4330
 k-point    51 :   0.3077 0.3077 0.2500  plane waves:    4319
 k-point    52 :   0.3846 0.3077 0.2500  plane waves:    4326
 k-point    53 :   0.4615 0.3077 0.2500  plane waves:    4331
 k-point    54 :   0.3846 0.3846 0.2500  plane waves:    4331
 k-point    55 :   0.4615 0.3846 0.2500  plane waves:    4312
 k-point    56 :   0.4615 0.4615 0.2500  plane waves:    4306
 k-point    57 :   0.0000 0.0000 0.5000  plane waves:    4250
 k-point    58 :   0.0769 0.0000 0.5000  plane waves:    4272
 k-point    59 :   0.1538 0.0000 0.5000  plane waves:    4286
 k-point    60 :   0.2308 0.0000 0.5000  plane waves:    4280
 k-point    61 :   0.3077 0.0000 0.5000  plane waves:    4290
 k-point    62 :   0.3846 0.0000 0.5000  plane waves:    4320
 k-point    63 :   0.4615 0.0000 0.5000  plane waves:    4316
 k-point    64 :   0.0769 0.0769 0.5000  plane waves:    4282
 k-point    65 :   0.1538 0.0769 0.5000  plane waves:    4292
 k-point    66 :   0.2308 0.0769 0.5000  plane waves:    4290
 k-point    67 :   0.3077 0.0769 0.5000  plane waves:    4298
 k-point    68 :   0.3846 0.0769 0.5000  plane waves:    4312
 k-point    69 :   0.4615 0.0769 0.5000  plane waves:    4318
 k-point    70 :   0.1538 0.1538 0.5000  plane waves:    4314
 k-point    71 :   0.2308 0.1538 0.5000  plane waves:    4306
 k-point    72 :   0.3077 0.1538 0.5000  plane waves:    4314
 k-point    73 :   0.3846 0.1538 0.5000  plane waves:    4314
 k-point    74 :   0.4615 0.1538 0.5000  plane waves:    4324
 k-point    75 :   0.2308 0.2308 0.5000  plane waves:    4318
 k-point    76 :   0.3077 0.2308 0.5000  plane waves:    4332
 k-point    77 :   0.3846 0.2308 0.5000  plane waves:    4318
 k-point    78 :   0.4615 0.2308 0.5000  plane waves:    4322
 k-point    79 :   0.3077 0.3077 0.5000  plane waves:    4320
 k-point    80 :   0.3846 0.3077 0.5000  plane waves:    4324
 k-point    81 :   0.4615 0.3077 0.5000  plane waves:    4324
 k-point    82 :   0.3846 0.3846 0.5000  plane waves:    4326
 k-point    83 :   0.4615 0.3846 0.5000  plane waves:    4306
 k-point    84 :   0.4615 0.4615 0.5000  plane waves:    4318

 maximum and minimum number of plane-waves per node :      4338     4235

 maximum number of plane-waves:      4338
 maximum index in each direction: 
   IXMAX=    6   IYMAX=    6   IZMAX=   21
   IXMIN=   -7   IYMIN=   -7   IZMIN=  -21


 serial   3D FFT for wavefunctions
 parallel 3D FFT for charge:
    minimum data exchange during FFTs selected (reduces bandwidth)


 total amount of memory used by VASP MPI-rank0   291796. kBytes
=======================================================================

   base      :      30000. kBytes
   nonl-proj :     106119. kBytes
   fftplans  :        888. kBytes
   grid      :       6813. kBytes
   one-center:        373. kBytes
   wavefun   :     147603. kBytes
 
     INWAV:  cpu time      0.0001: real time      0.0001
 Broyden mixing: mesh for mixing (old mesh)
   NGX = 13   NGY = 13   NGZ = 43
  (NGX  = 56   NGY  = 56   NGZ  =168)
  gives a total of   7267 points

 initial charge density was supplied:
 charge density of overlapping atoms calculated
 number of electron     156.0000000 magnetization      26.0010000
 charge density for first step will be calculated from the start-wavefunctions


--------------------------------------------------------------------------------------------------------


 Maximum index for augmentation-charges         1005 (set IRDMAX)


--------------------------------------------------------------------------------------------------------


 First call to EWALD:  gamma=   0.326
 Maximum number of real-space cells 4x 4x 2
 Maximum number of reciprocal cells 2x 2x 5

    FEWALD:  cpu time      0.0031: real time      0.0031


--------------------------------------- Ionic step        1  -------------------------------------------




--------------------------------------- Iteration      1(   1)  ---------------------------------------


    POTLOK:  cpu time      0.0330: real time      0.0340
    SETDIJ:  cpu time      0.0148: real time      0.0151
    TRIAL :  cpu time      5.9457: real time      5.9905
    CORREC:  cpu time      0.0036: real time      0.0036
    --------------------------------------------
      LOOP:  cpu time      6.1229: real time      6.1724

 eigenvalue-minimisations  : 43040
 total energy-change (2. order) : 0.1770089E+04  (-0.9176334E+04)
 number of electron     156.0000000 magnetization      26.0010000
 augmentation part      156.0000000 magnetization      26.0010000

 Free energy of the ion-electron system (eV)
  ---------------------------------------------------
  alpha Z        PSCENC =      1063.68830978
  Ewald energy   TEWEN  =    -17940.26832378
  -Hartree energ DENC   =     -6069.55123903
  -exchange      EXHF   =         0.00000000
  -V(xc)+E(xc)   XCENC  =       656.56840752
  PAW double counting   =     20093.52703337   -20817.41228292
  entropy T*S    EENTRO =        -0.00272264
  eigenvalues    EBANDS =       479.43664726
  atomic energy  EATOM  =     24304.10294433
  ---------------------------------------------------
  free energy    TOTEN  =      1770.08877388 eV

  energy without entropy =     1770.09149651  energy(sigma->0) =     1770.08968142


--------------------------------------------------------------------------------------------------------




--------------------------------------- Iteration      1(   2)  ---------------------------------------


    TRIAL :  cpu time      9.5202: real time      9.5782
    CORREC:  cpu time      0.0025: real time      0.0025
    --------------------------------------------
      LOOP:  cpu time      9.5371: real time      9.6014

 eigenvalue-minimisations  : 43040
 total energy-change (2. order) :-0.1763911E+04  (-0.1671714E+04)
 number of electron     156.0000000 magnetization      26.0010000
 augmentation part      156.0000000 magnetization      26.0010000

 Free energy of the ion-electron system (eV)
  ---------------------------------------------------
  alpha Z        PSCENC =      1063.68830978
  Ewald energy   TEWEN  =    -17940.26832378
  -Hartree energ DENC   =     -6069.55123903
  -exchange      EXHF   =         0.00000000
  -V(xc)+E(xc)   XCENC  =       656.56840752
  PAW double counting   =     20093.52703337   -20817.41228292
  entropy T*S    EENTRO =        -0.00191699
  eigenvalues    EBANDS =     -1284.47512294
  atomic energy  EATOM  =     24304.10294433
  ---------------------------------------------------
  free energy    TOTEN  =         6.17780932 eV

  energy without entropy =        6.17972632  energy(sigma->0) =        6.17844832


--------------------------------------------------------------------------------------------------------




--------------------------------------- Iteration      1(   3)  ---------------------------------------


    TRIAL :  cpu time      7.5521: real time      7.6018
    CORREC:  cpu time      0.0025: real time      0.0025
    --------------------------------------------
      LOOP:  cpu time      7.5678: real time      7.6255

 eigenvalue-minimisations  : 50624
 total energy-change (2. order) :-0.1086723E+03  (-0.1069411E+03)
 number of electron     156.0000000 magnetization      26.0010000
 augmentation part      156.0000000 magnetization      26.0010000

 Free energy of the ion-electron system (eV)
  ---------------------------------------------------
  alpha Z        PSCENC =      1063.68830978
  Ewald energy   TEWEN  =    -17940.26832378
  -Hartree energ DENC   =     -6069.55123903
  -exchange      EXHF   =         0.00000000
  -V(xc)+E(xc)   XCENC  =       656.56840752
  PAW double counting   =     20093.52703337   -20817.41228292
  entropy T*S    EENTRO =        -0.01036735
  eigenvalues    EBANDS =     -1393.13893114
  atomic energy  EATOM  =     24304.10294433
  ---------------------------------------------------
  free energy    TOTEN  =      -102.49444924 eV

  energy without entropy =     -102.48408189  energy(sigma->0) =     -102.49099345


--------------------------------------------------------------------------------------------------------




--------------------------------------- Iteration      1(   4)  ---------------------------------------


    TRIAL :  cpu time      6.2759: real time      6.3185
    CORREC:  cpu time      0.0024: real time      0.0024
    --------------------------------------------
      LOOP:  cpu time      6.2941: real time      6.3416

 eigenvalue-minimisations  : 45792
 total energy-change (2. order) :-0.1605124E+01  (-0.1604750E+01)
 number of electron     156.0000000 magnetization      26.0010000
 augmentation part      156.0000000 magnetization      26.0010000

 Free energy of the ion-electron system (eV)
  ---------------------------------------------------
  alpha Z        PSCENC =      1063.68830978
  Ewald energy   TEWEN  =    -17940.26832378
  -Hartree energ DENC   =     -6069.55123903
  -exchange      EXHF   =         0.00000000
  -V(xc)+E(xc)   XCENC  =       656.56840752
  PAW double counting   =     20093.52703337   -20817.41228292
  entropy T*S    EENTRO =        -0.01065100
  eigenvalues    EBANDS =     -1394.74377149
  atomic energy  EATOM  =     24304.10294433
  ---------------------------------------------------
  free energy    TOTEN  =      -104.09957323 eV

  energy without entropy =     -104.08892223  energy(sigma->0) =     -104.09602290


--------------------------------------------------------------------------------------------------------




--------------------------------------- Iteration      1(   5)  ---------------------------------------


    TRIAL :  cpu time      7.3731: real time      7.4206
    CORREC:  cpu time      0.0024: real time      0.0024
    CHARGE:  cpu time      0.2448: real time      0.2471
    --------------------------------------------
      LOOP:  cpu time      7.6355: real time      7.6915

 eigenvalue-minimisations  : 52736
 total energy-change (2. order) :-0.3183708E-01  (-0.3183615E-01)
 number of electron     156.0000202 magnetization      22.9954957
 augmentation part       79.4358446 magnetization      16.2380654

 Free energy of the ion-electron system (eV)
  ---------------------------------------------------
  alpha Z        PSCENC =      1063.68830978
  Ewald energy   TEWEN  =    -17940.26832378
  -Hartree energ DENC   =     -6069.55123903
  -exchange      EXHF   =         0.00000000
  -V(xc)+E(xc)   XCENC  =       656.56840752
  PAW double counting   =     20093.52703337   -20817.41228292
  entropy T*S    EENTRO =        -0.01065337
  eigenvalues    EBANDS =     -1394.77560620
  atomic energy  EATOM  =     24304.10294433
  ---------------------------------------------------
  free energy    TOTEN  =      -104.13141032 eV

  energy without entropy =     -104.12075694  energy(sigma->0) =     -104.12785919


--------------------------------------------------------------------------------------------------------




--------------------------------------- Iteration      1(   6)  ---------------------------------------


    POTLOK:  cpu time      0.0220: real time      0.0221
    SETDIJ:  cpu time      0.0081: real time      0.0082
    TRIAL :  cpu time      2.7781: real time      2.8033
    CORREC:  cpu time      1.1250: real time      1.1360
    CHARGE:  cpu time      0.1675: real time      0.1684
    --------------------------------------------
      LOOP:  cpu time      4.1160: real time      4.1595

 eigenvalue-minimisations  :     0
 total energy-change (2. order) : 0.4794666E+02  (-0.3069027E+02)
 number of electron     156.0000211 magnetization      23.9109506
 augmentation part       83.6406511 magnetization      17.5535408

 Free energy of the ion-electron system (eV)
  ---------------------------------------------------
  alpha Z        PSCENC =      1063.68830978
  Ewald energy   TEWEN  =    -17940.26832378
  -Hartree energ DENC   =     -4949.38852757
  -exchange      EXHF   =         0.00000000
  -V(xc)+E(xc)   XCENC  =       610.57563463
  PAW double counting   =     20904.96060139   -21570.68722090
  entropy T*S    EENTRO =         0.01831969
  eigenvalues    EBANDS =     -2479.15751961
  atomic energy  EATOM  =     24304.10294433
  ---------------------------------------------------
  free energy    TOTEN  =       -56.18475511 eV

  energy without entropy =      -56.20307480  energy(sigma->0) =      -56.19086167


--------------------------------------------------------------------------------------------------------




--------------------------------------- Iteration      1(   7)  ---------------------------------------


    POTLOK:  cpu time      0.0216: real time      0.0218
    SETDIJ:  cpu time      0.0074: real time      0.0074
    TRIAL :  cpu time      2.7851: real time      2.8117
    CORREC:  cpu time      1.1236: real time      1.1354
    CHARGE:  cpu time      0.1658: real time      0.1667
    --------------------------------------------
      LOOP:  cpu time      4.1202: real time      4.1656

 eigenvalue-minimisations  :     0
 total energy-change (2. order) :-0.3090155E+02  (-0.3740416E+01)
 number of electron     156.0000211 magnetization      24.5859139
 augmentation part       84.5277227 magnetization      18.2629570

 Free energy of the ion-electron system (eV)
  ---------------------------------------------------
  alpha Z        PSCENC =      1063.68830978
  Ewald energy   TEWEN  =    -17940.26832378
  -Hartree energ DENC   =     -5551.94712823
  -exchange      EXHF   =         0.00000000
  -V(xc)+E(xc)   XCENC  =       635.57359034
  PAW double counting   =     21818.30094747   -22597.05759393
  entropy T*S    EENTRO =         0.01841018
  eigenvalues    EBANDS =     -1819.49736852
  atomic energy  EATOM  =     24304.10294433
  ---------------------------------------------------
  free energy    TOTEN  =       -87.08630286 eV

  energy without entropy =      -87.10471304  energy(sigma->0) =      -87.09243958


--------------------------------------------------------------------------------------------------------




--------------------------------------- Iteration      1(   8)  ---------------------------------------


    POTLOK:  cpu time      0.0217: real time      0.0218
    SETDIJ:  cpu time      0.0071: real time      0.0071
    TRIAL :  cpu time      2.8871: real time      2.9132
    CORREC:  cpu time      1.1175: real time      1.1290
    CHARGE:  cpu time      0.1652: real time      0.1662
    --------------------------------------------
      LOOP:  cpu time      4.2160: real time      4.2604

 eigenvalue-minimisations  :     0
 total energy-change (2. order) :-0.3742744E+01  (-0.6846252E+00)
 number of electron     156.0000211 magnetization      24.7087290
 augmentation part       84.6833876 magnetization      18.3978491

 Free energy of the ion-electron system (eV)
  ---------------------------------------------------
  alpha Z        PSCENC =      1063.68830978
  Ewald energy   TEWEN  =    -17940.26832378
  -Hartree energ DENC   =     -5664.61718084
  -exchange      EXHF   =         0.00000000
  -V(xc)+E(xc)   XCENC  =       640.88068365
  PAW double counting   =     22083.64171385   -22861.01769983
  entropy T*S    EENTRO =         0.01715743
  eigenvalues    EBANDS =     -1717.25790432
  atomic energy  EATOM  =     24304.10294433
  ---------------------------------------------------
  free energy    TOTEN  =       -90.82904698 eV

  energy without entropy =      -90.84620441  energy(sigma->0) =      -90.83476613


--------------------------------------------------------------------------------------------------------




--------------------------------------- Iteration      1(   9)  ---------------------------------------


    POTLOK:  cpu time      0.0212: real time      0.0214
    SETDIJ:  cpu time      0.0083: real time      0.0085
    TRIAL :  cpu time      2.8476: real time      2.8733
    CORREC:  cpu time      1.1864: real time      1.1982
    CHARGE:  cpu time      0.1632: real time      0.1640
    --------------------------------------------
      LOOP:  cpu time      4.2443: real time      4.2875

 eigenvalue-minimisations  :     0
 total energy-change (2. order) :-0.8675342E+00  (-0.1950952E+00)
 number of electron     156.0000211 magnetization      24.7696742
 augmentation part       84.7053613 magnetization      18.4527730

 Free energy of the ion-electron system (eV)
  ---------------------------------------------------
  alpha Z        PSCENC =      1063.68830978
  Ewald energy   TEWEN  =    -17940.26832378
  -Hartree energ DENC   =     -5683.36138518
  -exchange      EXHF   =         0.00000000
  -V(xc)+E(xc)   XCENC  =       641.81003892
  PAW double counting   =     22135.84528261   -22911.92985030
  entropy T*S    EENTRO =         0.01618083
  eigenvalues    EBANDS =     -1701.60075498
  atomic energy  EATOM  =     24304.10294433
  ---------------------------------------------------
  free energy    TOTEN  =       -91.69658117 eV

  energy without entropy =      -91.71276201  energy(sigma->0) =      -91.70197478


--------------------------------------------------------------------------------------------------------




--------------------------------------- Iteration      1(  10)  ---------------------------------------


    POTLOK:  cpu time      0.0219: real time      0.0221
    SETDIJ:  cpu time      0.0075: real time      0.0075
    TRIAL :  cpu time      2.7675: real time      2.7930
    CORREC:  cpu time      1.2067: real time      1.2187
    CHARGE:  cpu time      0.1635: real time      0.1644
    --------------------------------------------
      LOOP:  cpu time      4.1839: real time      4.2274

 eigenvalue-minimisations  :     0
 total energy-change (2. order) :-0.1869905E+00  (-0.5976287E+00)
 number of electron     156.0000210 magnetization      25.0701195
 augmentation part       84.7658698 magnetization      18.7209741

 Free energy of the ion-electron system (eV)
  ---------------------------------------------------
  alpha Z        PSCENC =      1063.68830978
  Ewald energy   TEWEN  =    -17940.26832378
  -Hartree energ DENC   =     -5685.62153360
  -exchange      EXHF   =         0.00000000
  -V(xc)+E(xc)   XCENC  =       641.94677754
  PAW double counting   =     22132.67607324   -22906.94268518
  entropy T*S    EENTRO =         0.01124948
  eigenvalues    EBANDS =     -1701.48131481
  atomic energy  EATOM  =     24304.10294433
  ---------------------------------------------------
  free energy    TOTEN  =       -91.88357166 eV

  energy without entropy =      -91.89482114  energy(sigma->0) =      -91.88732149


--------------------------------------------------------------------------------------------------------




--------------------------------------- Iteration      1(  11)  ---------------------------------------


    POTLOK:  cpu time      0.0216: real time      0.0218
    SETDIJ:  cpu time      0.0076: real time      0.0076
    TRIAL :  cpu time      2.8122: real time      2.8394
    CORREC:  cpu time      1.1126: real time      1.1245
    CHARGE:  cpu time      0.1592: real time      0.1600
    --------------------------------------------
      LOOP:  cpu time      4.1299: real time      4.1756

 eigenvalue-minimisations  :     0
 total energy-change (2. order) :-0.6042092E+00  (-0.2481048E+00)
 number of electron     156.0000210 magnetization      25.1731938
 augmentation part       84.7971020 magnetization      18.8191908

 Free energy of the ion-electron system (eV)
  ---------------------------------------------------
  alpha Z        PSCENC =      1063.68830978
  Ewald energy   TEWEN  =    -17940.26832378
  -Hartree energ DENC   =     -5691.02389347
  -exchange      EXHF   =         0.00000000
  -V(xc)+E(xc)   XCENC  =       642.34681565
  PAW double counting   =     22090.23587396   -22853.52213824
  entropy T*S    EENTRO =         0.01226130
  eigenvalues    EBANDS =     -1708.05861859
  atomic energy  EATOM  =     24304.10294433
  ---------------------------------------------------
  free energy    TOTEN  =       -92.48778090 eV

  energy without entropy =      -92.50004220  energy(sigma->0) =      -92.49186800


--------------------------------------------------------------------------------------------------------




--------------------------------------- Iteration      1(  12)  ---------------------------------------


    POTLOK:  cpu time      0.0215: real time      0.0217
    SETDIJ:  cpu time      0.0073: real time      0.0074
    TRIAL :  cpu time      2.7945: real time      2.8206
    CORREC:  cpu time      1.1201: real time      1.1316
    CHARGE:  cpu time      0.1616: real time      0.1625
    --------------------------------------------
      LOOP:  cpu time      4.1212: real time      4.1661

 eigenvalue-minimisations  :     0
 total energy-change (2. order) :-0.3797331E+00  (-0.2585429E+00)
 number of electron     156.0000210 magnetization      25.1790071
 augmentation part       84.8145952 magnetization      18.8279255

 Free energy of the ion-electron system (eV)
  ---------------------------------------------------
  alpha Z        PSCENC =      1063.68830978
  Ewald energy   TEWEN  =    -17940.26832378
  -Hartree energ DENC   =     -5694.26516923
  -exchange      EXHF   =         0.00000000
  -V(xc)+E(xc)   XCENC  =       642.55186609
  PAW double counting   =     22080.31930945   -22839.64144325
  entropy T*S    EENTRO =         0.01221509
  eigenvalues    EBANDS =     -1709.36726871
  atomic energy  EATOM  =     24304.10294433
  ---------------------------------------------------
  free energy    TOTEN  =       -92.86751404 eV

  energy without entropy =      -92.87972913  energy(sigma->0) =      -92.87158574


--------------------------------------------------------------------------------------------------------




--------------------------------------- Iteration      1(  13)  ---------------------------------------


    POTLOK:  cpu time      0.0216: real time      0.0217
    SETDIJ:  cpu time      0.0078: real time      0.0078
    TRIAL :  cpu time      2.8349: real time      2.8615
    CORREC:  cpu time      1.1164: real time      1.1275
    CHARGE:  cpu time      0.1615: real time      0.1626
    --------------------------------------------
      LOOP:  cpu time      4.1591: real time      4.2036

 eigenvalue-minimisations  :     0
 total energy-change (2. order) :-0.2524342E+00  (-0.1326133E+00)
 number of electron     156.0000210 magnetization      25.2059369
 augmentation part       84.9125130 magnetization      18.8769659

 Free energy of the ion-electron system (eV)
  ---------------------------------------------------
  alpha Z        PSCENC =      1063.68830978
  Ewald energy   TEWEN  =    -17940.26832378
  -Hartree energ DENC   =     -5697.30209374
  -exchange      EXHF   =         0.00000000
  -V(xc)+E(xc)   XCENC  =       642.67564477
  PAW double counting   =     22082.52523252   -22842.39832324
  entropy T*S    EENTRO =         0.00816245
  eigenvalues    EBANDS =     -1706.15555393
  atomic energy  EATOM  =     24304.10294433
  ---------------------------------------------------
  free energy    TOTEN  =       -93.11994821 eV

  energy without entropy =      -93.12811066  energy(sigma->0) =      -93.12266903


--------------------------------------------------------------------------------------------------------




--------------------------------------- Iteration      1(  14)  ---------------------------------------


    POTLOK:  cpu time      0.0213: real time      0.0214
    SETDIJ:  cpu time      0.0078: real time      0.0079
    TRIAL :  cpu time      2.8242: real time      2.8513
    CORREC:  cpu time      1.1207: real time      1.1324
    CHARGE:  cpu time      0.1612: real time      0.1620
    --------------------------------------------
      LOOP:  cpu time      4.1574: real time      4.1976

 eigenvalue-minimisations  :     0
 total energy-change (2. order) :-0.1326738E+00  (-0.5653951E-01)
 number of electron     156.0000210 magnetization      25.2521206
 augmentation part       84.9505157 magnetization      18.9288986

 Free energy of the ion-electron system (eV)
  ---------------------------------------------------
  alpha Z        PSCENC =      1063.68830978
  Ewald energy   TEWEN  =    -17940.26832378
  -Hartree energ DENC   =     -5715.33585177
  -exchange      EXHF   =         0.00000000
  -V(xc)+E(xc)   XCENC  =       643.37887073
  PAW double counting   =     22094.15060381   -22857.01308536
  entropy T*S    EENTRO =         0.00633039
  eigenvalues    EBANDS =     -1685.96425217
  atomic energy  EATOM  =     24304.10294433
  ---------------------------------------------------
  free energy    TOTEN  =       -93.25262199 eV

  energy without entropy =      -93.25895238  energy(sigma->0) =      -93.25473212


--------------------------------------------------------------------------------------------------------




--------------------------------------- Iteration      1(  15)  ---------------------------------------


    POTLOK:  cpu time      0.0214: real time      0.0216
    SETDIJ:  cpu time      0.0074: real time      0.0075
    TRIAL :  cpu time      2.9239: real time      2.9511
    CORREC:  cpu time      1.1211: real time      1.1325
    CHARGE:  cpu time      0.1619: real time      0.1628
    --------------------------------------------
      LOOP:  cpu time      4.2536: real time      4.2976

 eigenvalue-minimisations  :     0
 total energy-change (2. order) :-0.5589260E-01  (-0.5776025E-01)
 number of electron     156.0000210 magnetization      25.3262110
 augmentation part       84.9762183 magnetization      19.0065237

 Free energy of the ion-electron system (eV)
  ---------------------------------------------------
  alpha Z        PSCENC =      1063.68830978
  Ewald energy   TEWEN  =    -17940.26832378
  -Hartree energ DENC   =     -5721.34922678
  -exchange      EXHF   =         0.00000000
  -V(xc)+E(xc)   XCENC  =       643.65069385
  PAW double counting   =     22089.75339437   -22853.35765016
  entropy T*S    EENTRO =         0.00451426
  eigenvalues    EBANDS =     -1679.53498659
  atomic energy  EATOM  =     24304.10294433
  ---------------------------------------------------
  free energy    TOTEN  =       -93.30851459 eV

  energy without entropy =      -93.31302885  energy(sigma->0) =      -93.31001935


--------------------------------------------------------------------------------------------------------




--------------------------------------- Iteration      1(  16)  ---------------------------------------


    POTLOK:  cpu time      0.0210: real time      0.0212
    SETDIJ:  cpu time      0.0076: real time      0.0076
    TRIAL :  cpu time      2.8046: real time      2.8304
    CORREC:  cpu time      1.1764: real time      1.1880
    CHARGE:  cpu time      0.1637: real time      0.1645
    --------------------------------------------
      LOOP:  cpu time      4.1903: real time      4.2342

 eigenvalue-minimisations  :     0
 total energy-change (2. order) :-0.5627498E-01  (-0.5686867E-01)
 number of electron     156.0000209 magnetization      25.4648550
 augmentation part       84.9597614 magnetization      19.1494493

 Free energy of the ion-electron system (eV)
  ---------------------------------------------------
  alpha Z        PSCENC =      1063.68830978
  Ewald energy   TEWEN  =    -17940.26832378
  -Hartree energ DENC   =     -5724.00421723
  -exchange      EXHF   =         0.00000000
  -V(xc)+E(xc)   XCENC  =       643.83142261
  PAW double counting   =     22075.88242648   -22839.40197413
  entropy T*S    EENTRO =         0.00259125
  eigenvalues    EBANDS =     -1677.19989189
  atomic energy  EATOM  =     24304.10294433
  ---------------------------------------------------
  free energy    TOTEN  =       -93.36478958 eV

  energy without entropy =      -93.36738083  energy(sigma->0) =      -93.36565333


--------------------------------------------------------------------------------------------------------




--------------------------------------- Iteration      1(  17)  ---------------------------------------


    POTLOK:  cpu time      0.0217: real time      0.0219
    SETDIJ:  cpu time      0.0074: real time      0.0075
    TRIAL :  cpu time      2.8550: real time      2.9280
    CORREC:  cpu time      1.2088: real time      1.2208
    CHARGE:  cpu time      0.1624: real time      0.1634
    --------------------------------------------
      LOOP:  cpu time      4.2723: real time      4.3635

 eigenvalue-minimisations  :     0
 total energy-change (2. order) :-0.5697625E-01  (-0.1363359E-01)
 number of electron     156.0000209 magnetization      25.4993623
[...]
     78      10.6789     -0.00000
     79      10.6792     -0.00000
     80      10.7002     -0.00000
     81      10.7003     -0.00000
     82      10.9088     -0.00000
     83      10.9094     -0.00000
     84      11.1369     -0.00000
     85      11.1742     -0.00000
     86      11.2748     -0.00000
     87      11.2879     -0.00000
     88      11.3411     -0.00000
     89      11.4031     -0.00000
     90      11.4485     -0.00000
     91      11.4535     -0.00000
     92      11.8511     -0.00000
     93      11.8516     -0.00000
     94      12.2450     -0.00000
     95      12.2452     -0.00000
     96      12.2881     -0.00000
     97      12.2892     -0.00000
     98      12.7403     -0.00000
     99      12.7404     -0.00000
    100      15.0366      0.00000
    101      16.8295      0.00000
    102      16.8967      0.00000
    103      16.9409      0.00000
    104      17.8108      0.00000
    105      17.8122      0.00000
    106      18.4762      0.00000
    107      18.4779      0.00000
    108      19.0233      0.00000
    109      19.0254      0.00000
    110      19.5161      0.00000
    111      19.5172      0.00000
    112      23.8539      0.00000
    113      23.8562      0.00000
    114      24.3553      0.00000
    115      24.3572      0.00000
    116      24.6719      0.00000
    117      24.6748      0.00000
    118      25.5187      0.00000
    119      25.5202      0.00000
    120      26.7775      0.00000
    121      26.7835      0.00000
    122      26.8342      0.00000
    123      27.1938      0.00000
    124      28.0764      0.00000
    125      28.0771      0.00000
    126      28.5064      0.00000
    127      28.5072      0.00000
    128      29.1096      0.00000


--------------------------------------------------------------------------------------------------------


 soft charge-density along one line, spin component           1
         0         1         2         3         4         5         6         7         8         9
 total charge-density along one line
 
 soft charge-density along one line, spin component           2
         0         1         2         3         4         5         6         7         8         9
 total charge-density along one line
 
 pseudopotential strength for first ion, spin component:           1
-45.425   0.000  -0.000   7.801  -0.000   0.000  -0.000   0.000
  0.000 -45.425  -0.000  -0.000   7.801   0.000   0.000   0.000
 -0.000  -0.000 -45.317   0.000   0.000   7.756   0.000   0.000
  7.801  -0.000   0.000   5.590  -0.000   0.000   0.000  -0.000
 -0.000   7.801   0.000  -0.000   5.590   0.000  -0.000  -0.000
  0.000   0.000   7.756   0.000   0.000   5.599  -0.000  -0.000
 -0.000   0.000   0.000   0.000  -0.000  -0.000  -2.417  -0.000
  0.000   0.000   0.000  -0.000  -0.000  -0.000  -0.000  -2.495
 -0.000   0.000   0.000   0.000  -0.000  -0.000   0.000   0.000
  0.000  -0.000   0.000  -0.000   0.000  -0.000   0.000  -0.000
 -0.000  -0.000  -0.000   0.000   0.000   0.000   0.000  -0.000
 -0.000   0.000   0.000   0.000  -0.000  -0.000  -2.925  -0.000
  0.000   0.000   0.000  -0.000  -0.000  -0.000  -0.000  -3.002
 -0.000   0.000   0.000   0.000  -0.000  -0.000   0.000   0.000
  0.000  -0.000   0.000  -0.000   0.000  -0.000   0.000  -0.000
 -0.000  -0.000  -0.000   0.000   0.000   0.000   0.000  -0.000
 -0.000  -0.000   0.000  -0.000  -0.000   0.000   0.000  -0.000
 -0.000  -0.000   0.000  -0.000  -0.000   0.000   0.000  -0.000
 pseudopotential strength for first ion, spin component:           2
-43.023   0.000  -0.000   6.790  -0.000   0.000  -0.000   0.000
  0.000 -43.023  -0.000  -0.000   6.790   0.000   0.000   0.000
 -0.000  -0.000 -42.985   0.000   0.000   6.773   0.000   0.000
  6.790  -0.000   0.000   5.875  -0.000   0.000   0.000  -0.000
 -0.000   6.790   0.000  -0.000   5.875   0.000  -0.000  -0.000
  0.000   0.000   6.773   0.000   0.000   5.879  -0.000  -0.000
 -0.000   0.000   0.000   0.000  -0.000  -0.000  -0.515  -0.000
  0.000   0.000   0.000  -0.000  -0.000  -0.000  -0.000  -0.534
 -0.000   0.000   0.000   0.000  -0.000  -0.000   0.000   0.000
  0.000  -0.000   0.000  -0.000   0.000  -0.000   0.000  -0.000
 -0.000  -0.000   0.000   0.000  -0.000  -0.000   0.000  -0.000
 -0.000   0.000   0.000   0.000  -0.000  -0.000  -1.054  -0.000
  0.000   0.000   0.000  -0.000  -0.000  -0.000  -0.000  -1.073
 -0.000   0.000   0.000   0.000  -0.000  -0.000   0.000   0.000
  0.000  -0.000   0.000  -0.000   0.000  -0.000   0.000  -0.000
 -0.000  -0.000  -0.000   0.000  -0.000   0.000   0.000  -0.000
 -0.000  -0.000   0.000  -0.000  -0.000   0.000   0.000  -0.000
 -0.000  -0.000   0.000  -0.000  -0.000   0.000   0.000  -0.000
 total augmentation occupancy for first ion, spin component:           1
  1.992   0.000   0.000  -0.027  -0.000  -0.000  -0.000   0.000   0.000   0.000   0.000   0.000  -0.000  -0.000  -0.000   0.000
  0.000   1.992  -0.000   0.000  -0.027   0.000   0.000  -0.000  -0.000  -0.000  -0.000   0.000   0.000   0.000   0.000   0.000
  0.000  -0.000   1.992  -0.000   0.000  -0.026   0.000   0.000  -0.000   0.000   0.000   0.000  -0.000  -0.000  -0.000   0.000
 -0.027   0.000  -0.000   0.174   0.000   0.000   0.000   0.000  -0.000   0.000  -0.000   0.000  -0.001   0.000   0.000   0.000
 -0.000  -0.027   0.000   0.000   0.174   0.000   0.000   0.000   0.000   0.000  -0.000   0.000   0.000  -0.000   0.000   0.000
 -0.000   0.000  -0.026   0.000   0.000   0.155   0.000  -0.000  -0.000   0.000   0.000   0.000   0.000   0.000  -0.000  -0.000
 -0.000   0.000   0.000   0.000   0.000   0.000   2.994  -0.000  -0.000   0.000  -0.000  -1.639   0.000   0.000  -0.000   0.000
  0.000  -0.000   0.000   0.000   0.000  -0.000  -0.000   3.320   0.000   0.000   0.000   0.000  -2.177   0.000   0.000   0.000
  0.000  -0.000  -0.000  -0.000   0.000  -0.000  -0.000   0.000   3.403   0.000   0.172   0.000  -0.000  -1.948  -0.000  -0.097
  0.000  -0.000   0.000   0.000   0.000   0.000   0.000   0.000   0.000   2.990  -0.000  -0.000   0.000   0.000  -1.637   0.000
  0.000  -0.000   0.000  -0.000  -0.000   0.000  -0.000   0.000   0.172  -0.000   3.196   0.000   0.000  -0.097   0.000  -1.831
  0.000   0.000   0.000   0.000   0.000   0.000  -1.639   0.000   0.000  -0.000   0.000   1.690   0.000   0.000   0.000  -0.000
 -0.000   0.000  -0.000  -0.001   0.000   0.000   0.000  -2.177  -0.000   0.000   0.000   0.000   2.349  -0.000   0.000   0.000
 -0.000   0.000  -0.000   0.000  -0.000   0.000   0.000   0.000  -1.948   0.000  -0.097   0.000  -0.000   1.755  -0.000   0.020
 -0.000   0.000  -0.000   0.000   0.000  -0.000  -0.000   0.000  -0.000  -1.637   0.000   0.000   0.000  -0.000   1.689   0.000
  0.000   0.000   0.000   0.000   0.000  -0.000   0.000   0.000  -0.097   0.000  -1.831  -0.000   0.000   0.020   0.000   1.727
  0.000   0.000   0.000   0.000  -0.000   0.000  -0.000   0.000  -0.102  -0.000   0.175  -0.000   0.000   0.073  -0.000  -0.125
 -0.000  -0.000   0.000   0.000   0.000   0.000   0.000   0.000   0.006   0.000  -0.011   0.000  -0.000  -0.004  -0.000   0.007
 total augmentation occupancy for first ion, spin component:           2
 -0.002   0.000  -0.000  -0.009   0.000  -0.000   0.000   0.000  -0.000   0.000   0.000  -0.000   0.000   0.000   0.000   0.000
  0.000  -0.002   0.000  -0.000  -0.009  -0.000  -0.000  -0.000   0.000   0.000   0.000   0.000  -0.000  -0.000   0.000  -0.000
 -0.000   0.000  -0.002  -0.000   0.000  -0.010   0.000  -0.000  -0.000   0.000   0.000   0.000  -0.000   0.000  -0.000  -0.000
 -0.009  -0.000  -0.000  -0.005  -0.000   0.000  -0.000   0.000  -0.000  -0.000   0.000   0.000  -0.000   0.000   0.000  -0.000
  0.000  -0.009   0.000  -0.000  -0.005  -0.000   0.000  -0.000   0.000   0.000  -0.000   0.000  -0.000  -0.000  -0.000  -0.000
 -0.000  -0.000  -0.010   0.000  -0.000  -0.012   0.000   0.000  -0.000   0.000   0.000   0.000  -0.000  -0.000  -0.000  -0.000
  0.000  -0.000   0.000  -0.000   0.000   0.000   2.470   0.000  -0.000  -0.000  -0.000  -1.083   0.000   0.000   0.000   0.000
  0.000  -0.000  -0.000   0.000  -0.000   0.000   0.000   2.514   0.000   0.000  -0.000  -0.000  -1.030   0.000   0.000  -0.000
 -0.000   0.000  -0.000  -0.000   0.000  -0.000  -0.000   0.000   2.804   0.000   0.100   0.000  -0.000  -1.195  -0.000  -0.095
  0.000   0.000   0.000  -0.000   0.000   0.000  -0.000   0.000   0.000   2.465   0.000   0.000   0.000   0.000  -1.080   0.000
  0.000   0.000   0.000   0.000  -0.000   0.000  -0.000  -0.000   0.100   0.000   2.680   0.000   0.000  -0.095   0.000  -1.080
 -0.000   0.000   0.000   0.000   0.000   0.000  -1.083  -0.000   0.000   0.000   0.000   0.274   0.000   0.000   0.000   0.000
  0.000  -0.000  -0.000  -0.000  -0.000  -0.000   0.000  -1.030  -0.000   0.000   0.000   0.000   0.173   0.000  -0.000  -0.000
  0.000  -0.000   0.000   0.000  -0.000  -0.000   0.000   0.000  -1.195   0.000  -0.095   0.000   0.000   0.375   0.000   0.109
  0.000   0.000  -0.000   0.000  -0.000  -0.000   0.000   0.000  -0.000  -1.080   0.000   0.000  -0.000   0.000   0.272  -0.000
  0.000  -0.000  -0.000  -0.000  -0.000  -0.000   0.000  -0.000  -0.095   0.000  -1.080   0.000  -0.000   0.109  -0.000   0.246
 -0.000   0.000   0.000  -0.000  -0.000   0.000   0.000   0.000  -0.034  -0.000   0.059   0.000   0.000   0.034   0.000  -0.059
  0.000  -0.000   0.000   0.000  -0.000   0.000  -0.000   0.000   0.003  -0.000  -0.005   0.000   0.000  -0.000  -0.000   0.001


------------------------ aborting loop because EDIFF is reached ----------------------------------------





 total charge

# of ion       s       p       d       tot
------------------------------------------
    1        0.340   6.311   6.007  12.658
    2        0.340   6.311   6.006  12.657
    3        0.340   6.311   6.007  12.658
    4        0.340   6.311   6.007  12.659
    5        0.340   6.311   6.006  12.657
    6        0.340   6.311   6.006  12.657
    7        0.340   6.311   6.007  12.658
    8        0.340   6.311   6.006  12.657
    9        0.340   6.311   6.007  12.658
   10        0.748   0.670   8.032   9.450
   11        0.748   0.669   8.031   9.448
   12        0.748   0.669   8.031   9.448
--------------------------------------------------
tot          5.305  58.808  78.153 142.265



 magnetization (x)

# of ion       s       p       d       tot
------------------------------------------
    1       -0.001  -0.017   2.799   2.781
    2       -0.001  -0.017   2.800   2.782
    3       -0.001  -0.017   2.799   2.781
    4       -0.002  -0.017   2.798   2.780
    5       -0.001  -0.017   2.801   2.783
    6       -0.001  -0.017   2.801   2.783
    7       -0.001  -0.017   2.799   2.781
    8       -0.001  -0.017   2.800   2.782
    9       -0.001  -0.017   2.799   2.781
   10       -0.042  -0.099   0.451   0.310
   11       -0.042  -0.099   0.451   0.310
   12       -0.042  -0.099   0.451   0.310
--------------------------------------------------
tot         -0.138  -0.449  26.549  25.963
 
    FORLOC:  cpu time      0.0009: real time      0.0009
    FORNL :  cpu time      0.7395: real time      0.7433
    STRESS:  cpu time      4.5586: real time      4.5929
    FORCOR:  cpu time      0.0203: real time      0.0204
    OFIELD:  cpu time      0.0002: real time      0.0002

  FORCE on cell =-STRESS in cart. coord.  units (eV):
  Direction    XX          YY          ZZ          XY          YZ          ZX
  --------------------------------------------------------------------------------------
  Alpha Z  1063.68831  1063.68831  1063.68831
  Ewald   -5979.72154 -5979.72154 -5980.83503    -0.00000    -0.00000    -0.00000
  Hartree  1908.36048  1908.36048  1907.70038    -0.00000    -0.00000    -0.00000
  E(xc)    -943.92200  -943.92200  -943.92306     0.00000     0.00000    -0.00000
  Local    1038.56478  1038.56478  1040.20846     0.00000     0.00000    -0.00000
  n-local  -218.57217  -233.22848  -225.86348    14.41748    -0.14505     0.06560
  augment  1439.74170  1439.74170  1439.75911     0.00000     0.00000     0.00000
  Kinetic  1697.86579  1692.70582  1695.35965     1.58452     0.22681     1.04321
  Fock        0.00000     0.00000     0.00000     0.00000     0.00000     0.00000
  -------------------------------------------------------------------------------------
  Total      -3.90278    -3.90278    -3.90566     0.00000    -0.00000     0.00000
  in kB     -39.08095   -39.08095   -39.10976     0.00000    -0.00000     0.00000
  external pressure =      -39.09 kB  Pullay stress =        0.00 kB


 VOLUME and BASIS-vectors are now :
 -----------------------------------------------------------------------------
  energy-cutoff  :      520.00
  volume of cell :      160.00
      direct lattice vectors                 reciprocal lattice vectors
     3.762888530  0.000000000 -0.000000000     0.265753288 -0.000000000  0.000000000
     0.000000000  3.762888530  0.000000000    -0.000000000  0.265753288 -0.000000000
    -0.000000000  0.000000000 11.299969632     0.000000000 -0.000000000  0.088495813

  length of vectors
     3.762888530  3.762888530 11.299969632     0.265753288  0.265753288  0.088495813


 FORCES acting on ions:
    Electron-Ion                     Ewald-Force                    Non-Local-Force
 -----------------------------------------------------------------------------------------------
   0.120E-13 0.120E-11 -.261E+01   0.698E-14 0.282E-13 0.260E+01   -.185E-20 0.294E-20 0.151E-02
   0.127E-13 0.105E-11 0.327E-11   0.268E-13 0.241E-13 -.398E-12   0.506E-24 -.475E-24 -.262E-24
   0.942E-14 0.132E-11 0.261E+01   0.603E-14 -.238E-14 -.260E+01   -.167E-20 -.284E-20 -.151E-02
   0.113E-11 0.789E-11 0.478E-11   -.739E-14 0.152E-13 0.341E-12   -.618E-24 -.100E-23 -.494E-24
   0.114E-11 0.701E-11 -.263E+01   0.465E-13 -.331E-13 0.262E+01   0.271E-21 -.642E-21 0.516E-02
   0.113E-11 0.685E-11 0.263E+01   0.104E-13 0.634E-13 -.262E+01   -.316E-21 0.682E-21 -.516E-02
   0.112E-11 0.167E-11 -.261E+01   -.947E-14 -.121E-13 0.260E+01   0.265E-20 0.286E-21 0.151E-02
   0.112E-11 -.948E-11 0.597E-11   -.290E-13 0.222E-13 -.284E-12   -.627E-24 -.745E-24 0.612E-24
   0.112E-11 -.434E-11 0.261E+01   -.208E-13 -.102E-14 -.260E+01   -.117E-20 -.395E-21 -.151E-02
   -.139E-13 0.216E-12 -.191E-12   -.982E-14 -.243E-14 0.114E-12   -.818E-25 0.882E-25 0.137E-24
   -.144E-13 0.525E-12 -.170E+01   -.428E-13 0.277E-13 0.170E+01   0.556E-21 -.816E-21 0.877E-02
   -.143E-13 0.148E-12 0.170E+01   -.965E-14 -.797E-13 -.170E+01   -.531E-21 -.157E-21 -.877E-02
 -----------------------------------------------------------------------------------------------
   0.678E-11 0.142E-10 0.374E-10   -.322E-13 0.500E-13 -.154E-12   -.206E-20 -.950E-21 0.000E+00
 
 
 POSITION                                       TOTAL-FORCE (eV/Angst)
 -----------------------------------------------------------------------------------
      0.00000      1.88144      1.88219         0.000000     -0.000000     -0.002087
      0.00000      1.88144      5.64998         0.000000      0.000000     -0.000000
      0.00000      1.88144      9.41778        -0.000000     -0.000000      0.002087
      1.88144      1.88144     -0.00000         0.000000     -0.000000     -0.000000
      1.88144      1.88144      3.76540         0.000000     -0.000000     -0.007277
      1.88144      1.88144      7.53457        -0.000000      0.000000      0.007277
      1.88144      3.76289      1.88219         0.000000      0.000000     -0.002087
      1.88144      3.76289      5.64998        -0.000000      0.000000     -0.000000
      1.88144      3.76289      9.41778        -0.000000      0.000000      0.002087
      0.00000      3.76289      0.00000        -0.000000      0.000000     -0.000000
      0.00000      3.76289      3.76577        -0.000000      0.000000      0.007109
      0.00000      3.76289      7.53420         0.000000      0.000000     -0.007109
 -----------------------------------------------------------------------------------
    total drift:                                0.000000      0.000000      0.000000


--------------------------------------------------------------------------------------------------------



  FREE ENERGIE OF THE ION-ELECTRON SYSTEM (eV)
  ---------------------------------------------------
  free  energy   TOTEN  =       -93.48307094 eV

  energy  without entropy=      -93.48056197  energy(sigma->0) =      -93.48223462
 
 d Force = 0.4200265E-04[ 0.115E-04, 0.725E-04]  d Energy =-0.1265644E-04 0.547E-04
 d Force =-0.8806893E-02[-0.125E-01,-0.510E-02]  d Ewald  =-0.8793518E-02-0.134E-04


--------------------------------------------------------------------------------------------------------


    POTLOK:  cpu time      0.0294: real time      0.0296


--------------------------------------------------------------------------------------------------------


 Steepest descent step on ions:
 trial-energy change:    0.000013  1 .order   -0.000042   -0.000073   -0.000012
  (g-gl).g = 0.726E-04      g.g   = 0.726E-04  gl.gl    = 0.000E+00
 g(Force)  = 0.725E-04   g(Stress)= 0.543E-07 ortho     = 0.000E+00
 gamma     =   0.00000
 trial     =   1.00000
 opt step  =   1.18842  (harmonic =   1.18842) maximal distance =0.00108248
 next E    =   -93.483127   (d E  =  -0.00004)


--------------------------------------------------------------------------------------------------------


  
 reached required accuracy - stopping structural energy minimisation
     LOOP+:  cpu time     56.7822: real time     57.3907
    4ORBIT:  cpu time      0.0000: real time      0.0000



 total charge

# of ion       s       p       d       tot
------------------------------------------
    1        0.340   6.311   6.007  12.658
    2        0.340   6.311   6.006  12.657
    3        0.340   6.311   6.007  12.658
    4        0.340   6.311   6.007  12.659
    5        0.340   6.311   6.006  12.657
    6        0.340   6.311   6.006  12.657
    7        0.340   6.311   6.007  12.658
    8        0.340   6.311   6.006  12.657
    9        0.340   6.311   6.007  12.658
   10        0.748   0.670   8.032   9.450
   11        0.748   0.669   8.031   9.448
   12        0.748   0.669   8.031   9.448
--------------------------------------------------
tot          5.305  58.808  78.153 142.265



 magnetization (x)

# of ion       s       p       d       tot
------------------------------------------
    1       -0.001  -0.017   2.799   2.781
    2       -0.001  -0.017   2.800   2.782
    3       -0.001  -0.017   2.799   2.781
    4       -0.002  -0.017   2.798   2.780
    5       -0.001  -0.017   2.801   2.783
    6       -0.001  -0.017   2.801   2.783
    7       -0.001  -0.017   2.799   2.781
    8       -0.001  -0.017   2.800   2.782
    9       -0.001  -0.017   2.799   2.781
   10       -0.042  -0.099   0.451   0.310
   11       -0.042  -0.099   0.451   0.310
   12       -0.042  -0.099   0.451   0.310
--------------------------------------------------
tot         -0.138  -0.449  26.549  25.963
 

 total amount of memory used by VASP MPI-rank0   291796. kBytes
=======================================================================

   base      :      30000. kBytes
   nonl-proj :     106119. kBytes
   fftplans  :        888. kBytes
   grid      :       6813. kBytes
   one-center:        373. kBytes
   wavefun   :     147603. kBytes
 
  
  
 General timing and accounting informations for this job:
 ========================================================
  
                  Total CPU time used (sec):      264.905
                            User time (sec):      257.832
                          System time (sec):        7.072
                         Elapsed time (sec):      273.130
  
                   Maximum memory used (kb):     1191948.
                   Average memory used (kb):          N/A
  
                          Minor page faults:       165119
                          Major page faults:          272
                 Voluntary context switches:         8856
