       N       E                     dE             d eps       ncg     rms          ort
DAV:   1     0.173264569352E+04    0.17326E+04   -0.94112E+04  8064   0.245E+03
DAV:   2     0.132824857799E+02   -0.17194E+04   -0.16908E+04  8064   0.596E+02
DAV:   3    -0.101741169233E+03   -0.11502E+03   -0.11372E+03  8064   0.157E+02
DAV:   4    -0.104289463056E+03   -0.25483E+01   -0.25467E+01  8064   0.246E+01
DAV:   5    -0.104347927564E+03   -0.58465E-01   -0.58463E-01  8064   0.391E+00
SDA:   6    -0.465465202501E+02    0.57801E+02   -0.58463E-01  8064   0.561E+03 0.000E+00
CGA:   7    -0.720949944025E+02   -0.25548E+02   -0.22218E+02  8064   0.307E+03 0.103E+03
CGA:   8    -0.849864684171E+02   -0.12891E+02   -0.10729E+02  8064   0.431E+02 0.111E+03
CGA:   9    -0.888131208946E+02   -0.38267E+01   -0.39532E+01  8064   0.459E+02-0.980E+00
CGA:  10    -0.897235981322E+02   -0.91048E+00   -0.64325E+00  8064   0.172E+02 0.201E+02
CGA:  11    -0.902427725058E+02   -0.51917E+00   -0.48721E+00  8064   0.124E+02 0.167E+01
CGA:  12    -0.909831043446E+02   -0.74033E+00   -0.71745E+00  8064   0.284E+02 0.435E+00
CGA:  13    -0.913583502197E+02   -0.37525E+00   -0.24707E+00  8064   0.166E+02 0.172E+02
CGA:  14    -0.916852127182E+02   -0.32686E+00   -0.36552E+00  8064   0.257E+01-0.161E+01
CGA:  15    -0.919998003517E+02   -0.31459E+00   -0.31497E+00  8064   0.468E+01 0.237E-01
CGA:  16    -0.922316586039E+02   -0.23186E+00   -0.24030E+00  8064   0.299E+01-0.117E+00
CGA:  17    -0.924086806168E+02   -0.17702E+00   -0.17972E+00  8064   0.156E+01-0.266E-01
CGA:  18    -0.925326190402E+02   -0.12394E+00   -0.12596E+00  8064   0.216E+01-0.332E-02
CGA:  19    -0.926380834022E+02   -0.10546E+00   -0.10771E+00  8064   0.476E+00-0.329E-01
CGA:  20    -0.926682068378E+02   -0.30123E-01   -0.30360E-01  8064   0.504E+00-0.829E-03
CGA:  21    -0.926972291007E+02   -0.29022E-01   -0.29287E-01  8064   0.173E+00-0.141E-02
CGA:  22    -0.927088977976E+02   -0.11669E-01   -0.11750E-01  8064   0.185E+00 0.106E-03
CGA:  23    -0.927219090396E+02   -0.13011E-01   -0.13130E-01  8064   0.150E+00-0.912E-04
CGA:  24    -0.927333246485E+02   -0.11416E-01   -0.11440E-01  8064   0.798E-01 0.170E-03
CGA:  25    -0.927363207295E+02   -0.29961E-02   -0.30027E-02  8064   0.259E-01-0.858E-04
CGA:  26    -0.927400896428E+02   -0.37689E-02   -0.37702E-02  8064   0.557E-01-0.332E-04
CGA:  27    -0.927426657786E+02   -0.25761E-02   -0.25768E-02  8064   0.136E-01-0.298E-03
CGA:  28    -0.927434889209E+02   -0.82314E-03   -0.82269E-03  8064   0.827E-02-0.348E-04
CGA:  29    -0.927440894380E+02   -0.60052E-03   -0.60031E-03  8064   0.108E-01 0.642E-06
CGA:  30    -0.927454068734E+02   -0.13174E-02   -0.13159E-02  8064   0.816E-02 0.669E-04
CGA:  31    -0.927457112610E+02   -0.30439E-03   -0.30513E-03  8064   0.255E-02 0.173E-04
CGA:  32    -0.927459765757E+02   -0.26531E-03   -0.26526E-03  8064   0.329E-02 0.320E-04
CGA:  33    -0.927461468463E+02   -0.17027E-03   -0.17104E-03  8064   0.193E-02 0.219E-04
CGA:  34    -0.927462844344E+02   -0.13759E-03   -0.13778E-03  8064   0.168E-02 0.932E-05
CGA:  35    -0.927463820936E+02   -0.97659E-04   -0.97537E-04  8064   0.139E-02-0.958E-06
CGA:  36    -0.927464711076E+02   -0.89014E-04   -0.88525E-04  8064   0.477E-03-0.831E-05
CGA:  37    -0.927464932133E+02   -0.22106E-04   -0.21799E-04  8064   0.343E-03-0.521E-05
CGA:  38    -0.927465434053E+02   -0.50192E-04   -0.51911E-04  8064   0.467E-03-0.269E-04
CGA:  39    -0.927465602269E+02   -0.16822E-04   -0.16207E-04  8064   0.118E-03-0.982E-05
CGA:  40    -0.927465705254E+02   -0.10298E-04   -0.10264E-04  8064   0.129E-03-0.781E-05
CGA:  41    -0.927465805967E+02   -0.10071E-04   -0.99845E-05  8064   0.142E-03-0.838E-05
CGA:  42    -0.927465868397E+02   -0.62429E-05   -0.60160E-05  8064   0.276E-04-0.354E-05
CGA:  43    -0.927465902508E+02   -0.34111E-05   -0.33669E-05  8064   0.635E-04 0.246E-05
SDA:  44    -0.927465934378E+02   -0.31870E-05   -0.32588E-05  8064   0.134E-04 0.295E-05
CGA:  45    -0.927465938562E+02   -0.41839E-06   -0.41461E-06  8064   0.753E-05 0.112E-05
   1 F= -.92746594E+02 E0= -.92747791E+02  d E =-.927466E+02  mag=     2.9255
       N       E                     dE             d eps       ncg     rms          ort
SDA:   1    -0.927460860572E+02    0.50738E-03    0.00000E+00  8064   0.319E-02 0.000E+00
CGA:   2    -0.927461850988E+02   -0.99042E-04   -0.99064E-04  8064   0.178E-02-0.929E-06
CGA:   3    -0.927463477672E+02   -0.16267E-03   -0.16267E-03  8064   0.115E-02-0.623E-06
CGA:   4    -0.927464286161E+02   -0.80849E-04   -0.80824E-04  8064   0.114E-02-0.164E-05
CGA:   5    -0.927464872312E+02   -0.58615E-04   -0.58554E-04  8064   0.876E-03-0.196E-05
CGA:   6    -0.927465596373E+02   -0.72406E-04   -0.72406E-04  8064   0.141E-03-0.220E-05
CGA:   7    -0.927465772399E+02   -0.17603E-04   -0.17581E-04  8064   0.270E-03 0.473E-06
CGA:   8    -0.927465861254E+02   -0.88855E-05   -0.88973E-05  8064   0.674E-04 0.208E-06
CGA:   9    -0.927465916220E+02   -0.54966E-05   -0.54964E-05  8064   0.465E-04-0.160E-06
CGA:  10    -0.927465947735E+02   -0.31515E-05   -0.31487E-05  8064   0.637E-04-0.208E-06
CGA:  11    -0.927465982774E+02   -0.35040E-05   -0.34973E-05  8064   0.147E-04-0.243E-06
CGA:  12    -0.927466000762E+02   -0.17988E-05   -0.18200E-05  8064   0.185E-04-0.486E-06
CGA:  13    -0.927466008364E+02   -0.76015E-06   -0.75596E-06  8064   0.110E-04-0.115E-06
   2 F= -.92746601E+02 E0= -.92747845E+02  d E =-.698020E-05  mag=     2.9243
       N       E                     dE             d eps       ncg     rms          ort
SDA:   1    -0.927423851593E+02    0.42149E-02    0.00000E+00  8064   0.166E-01 0.000E+00
CGA:   2    -0.927432953306E+02   -0.91017E-03   -0.91001E-03  8064   0.211E-01-0.431E-05
CGA:   3    -0.927445448217E+02   -0.12495E-02   -0.12494E-02  8064   0.812E-02-0.516E-05
CGA:   4    -0.927452103699E+02   -0.66555E-03   -0.66554E-03  8064   0.107E-01-0.599E-06
CGA:   5    -0.927457580449E+02   -0.54767E-03   -0.54764E-03  8064   0.749E-02 0.114E-05
CGA:   6    -0.927462278309E+02   -0.46979E-03   -0.46980E-03  8064   0.125E-02 0.100E-05
CGA:   7    -0.927464297493E+02   -0.20192E-03   -0.20178E-03  8064   0.127E-02 0.160E-05
CGA:   8    -0.927464717076E+02   -0.41958E-04   -0.41964E-04  8064   0.581E-03-0.169E-06
CGA:   9    -0.927465178798E+02   -0.46172E-04   -0.46172E-04  8064   0.417E-03-0.342E-06
CGA:  10    -0.927465495518E+02   -0.31672E-04   -0.31671E-04  8064   0.551E-03-0.725E-06
CGA:  11    -0.927465722382E+02   -0.22686E-04   -0.22663E-04  8064   0.122E-03-0.732E-06
CGA:  12    -0.927465903028E+02   -0.18065E-04   -0.18068E-04  8064   0.105E-03-0.714E-07
CGA:  13    -0.927465957927E+02   -0.54899E-05   -0.54911E-05  8064   0.622E-04 0.268E-07
CGA:  14    -0.927465980590E+02   -0.22663E-05   -0.22722E-05  8064   0.231E-04 0.119E-06
CGA:  15    -0.927466010120E+02   -0.29530E-05   -0.29334E-05  8064   0.258E-04 0.414E-06
CGA:  16    -0.927466017928E+02   -0.78082E-06   -0.78515E-06  8064   0.636E-05 0.777E-07
   3 F= -.92746602E+02 E0= -.92747868E+02  d E =-.793664E-05  mag=     2.9221
       N       E                     dE             d eps       ncg     rms          ort
SDA:   1    -0.927459812139E+02    0.61980E-03    0.00000E+00  8064   0.809E-02 0.000E+00
CGA:   2    -0.927461677513E+02   -0.18654E-03   -0.18657E-03  8064   0.167E-02-0.809E-06
CGA:   3    -0.927463073227E+02   -0.13957E-03   -0.13957E-03  8064   0.140E-02-0.270E-07
CGA:   4    -0.927464124759E+02   -0.10515E-03   -0.10515E-03  8064   0.144E-02-0.256E-06
CGA:   5    -0.927464723871E+02   -0.59911E-04   -0.59903E-04  8064   0.645E-03 0.373E-07
CGA:   6    -0.927465637822E+02   -0.91395E-04   -0.91472E-04  8064   0.210E-03-0.115E-05
CGA:   7    -0.927465804339E+02   -0.16652E-04   -0.16652E-04  8064   0.178E-03 0.270E-06
CGA:   8    -0.927465879591E+02   -0.75251E-05   -0.75295E-05  8064   0.130E-03 0.128E-06
CGA:   9    -0.927465980763E+02   -0.10117E-04   -0.10117E-04  8064   0.393E-04 0.213E-06
CGA:  10    -0.927466000640E+02   -0.19877E-05   -0.19891E-05  8064   0.479E-04 0.568E-07
CGA:  11    -0.927466048241E+02   -0.47602E-05   -0.47615E-05  8064   0.176E-04-0.454E-07
CGA:  12    -0.927466062923E+02   -0.14681E-05   -0.14685E-05  8064   0.128E-04-0.266E-07
CGA:  13    -0.927466070859E+02   -0.79359E-06   -0.79515E-06  8064   0.139E-04 0.311E-07
   4 F= -.92746607E+02 E0= -.92747868E+02  d E =-.132297E-04  mag=     2.9231
