 vasp.6.4.3 19Mar24 (build Mar 26 2024 14:05:37) complex                        
  
 executed on             LinuxIFC date 2024.12.16  12:05:19
 running  128 mpi-ranks, on    1 nodes
 distrk:  each k-point on   32 cores,    4 groups
 distr:  one band on NCORE=   1 cores,   32 groups


--------------------------------------------------------------------------------------------------------


 INCAR:
   ALGO = All
   EDIFF = 1e-06
   EDIFFG = -0.01
   ENCUT = 520
   GGA = Pe
   IBRION = 2
   ISIF = 4
   ISMEAR = 1
   ISPIN = 2
   KPAR = 4
   LCHARG = True
   LORBIT = 11
   LREAL = False
   LWAVE = False
   MAGMOM = 1*-2.76 2*2.778 2*-2.797 1*2.917 1*-2.76 2*2.778 2*-0.079 1*0.251
   NELM = 200
   NSW = 100
   PREC = Accurate
   SIGMA = 0.2

 POTCAR:    PAW_PBE Fe_pv 02Aug2007               
 POTCAR:    PAW_PBE Pt 04Feb2005                  
 -----------------------------------------------------------------------------
|                                                                             |
|           W    W    AA    RRRRR   N    N  II  N    N   GGGG   !!!           |
|           W    W   A  A   R    R  NN   N  II  NN   N  G    G  !!!           |
|           W    W  A    A  R    R  N N  N  II  N N  N  G       !!!           |
|           W WW W  AAAAAA  RRRRR   N  N N  II  N  N N  G  GGG   !            |
|           WW  WW  A    A  R   R   N   NN  II  N   NN  G    G                |
|           W    W  A    A  R    R  N    N  II  N    N   GGGG   !!!           |
|                                                                             |
|     For optimal performance we recommend to set                             |
|       NCORE = 2 up to number-of-cores-per-socket                            |
|     NCORE specifies how many cores store one orbital (NPAR=cpu/NCORE).      |
|     This setting can greatly improve the performance of VASP for DFT.       |
|     The default, NCORE=1 might be grossly inefficient on modern             |
|     multi-core architectures or massively parallel machines. Do your        |
|     own testing! More info at https://www.vasp.at/wiki/index.php/NCORE      |
|     Unfortunately you need to use the default for GW and RPA                |
|     calculations (for HF NCORE is supported but not extensively tested      |
|     yet).                                                                   |
|                                                                             |
 -----------------------------------------------------------------------------

 POTCAR:    PAW_PBE Fe_pv 02Aug2007               
   SHA256 =  5d22e414b1f82158bf2c7ecb8b97b28fd0923e48cadc1c3bf74d524558f5dd32 Fe_pv/POTCAR          
   COPYR  = (c) Copyright 02Aug2007 Georg Kresse                                                    
   COPYR  = This file is part of the software VASP. Any use, copying, and all other rights are regul
   COPYR  = If you do not have a valid VASP license, you may not use, copy or distribute this file. 
   VRHFIN =Fe:  3pd7s1                                                                              
   LEXCH  = PE                                                                                      
   EATOM  =  2457.4239 eV,  180.6156 Ry                                                             
                                                                                                    
   TITEL  = PAW_PBE Fe_pv 02Aug2007                                                                 
   LULTRA =        F    use ultrasoft PP ?                                                          
   IUNSCR =        1    unscreen: 0-lin 1-nonlin 2-no                                               
   RPACOR =    1.750    partial core radius                                                         
   POMASS =   55.847; ZVAL   =   14.000    mass and valenz                                          
   RCORE  =    2.200    outmost cutoff radius                                                       
   RWIGS  =    2.200; RWIGS  =    1.164    wigner-seitz radius (au A)                               
   ENMAX  =  293.238; ENMIN  =  219.928 eV                                                          
   ICORE  =        3    local potential                                                             
   LCOR   =        T    correct aug charges                                                         
   LPAW   =        T    paw PP                                                                      
   EAUG   =  578.342                                                                                
   DEXC   =    0.000                                                                                
   RMAX   =    2.249    core radius for proj-oper                                                   
   RAUG   =    1.300    factor for augmentation sphere                                              
   RDEP   =    2.296    radius for radial grids                                                     
   RDEPT  =    1.766    core radius for aug-charge                                                  
                                                                                                    
   Atomic configuration                                                                             
    8 entries                                                                                       
     n  l   j            E        occ.                                                              
     1  0  0.50     -6993.8440   2.0000                                                             
     2  0  0.50      -814.6047   2.0000                                                             
     2  1  1.50      -693.3689   6.0000                                                             
     3  0  0.50       -89.4732   2.0000                                                             
     3  1  1.50       -55.6373   6.0000                                                             
     3  2  2.50        -3.8151   7.0000                                                             
     4  0  0.50        -4.2551   1.0000                                                             
     4  3  2.50        -1.3606   0.0000                                                             
   Description                                                                                      
     l       E           TYP  RCUT    TYP  RCUT                                                     
     1    -55.6372668     23  2.000                                                                 
     1     -5.4423304     23  2.000                                                                 
     2     -3.8151096     23  2.200                                                                 
     2     -5.1756922     23  2.200                                                                 
     0     -4.2550951     23  2.200                                                                 
     0     27.2116520     23  2.200                                                                 
     3     -1.3605826     23  2.200                                                                 
  local pseudopotential read in
  partial core-charges read in
  partial kinetic energy density read in
  atomic valenz-charges read in
  non local Contribution for L=           1  read in
    real space projection operators read in
  non local Contribution for L=           1  read in
    real space projection operators read in
  non local Contribution for L=           2  read in
    real space projection operators read in
  non local Contribution for L=           2  read in
    real space projection operators read in
  non local Contribution for L=           0  read in
    real space projection operators read in
  non local Contribution for L=           0  read in
    real space projection operators read in
    PAW grid and wavefunctions read in
 
   number of l-projection  operators is LMAX  =           6
   number of lm-projection operators is LMMAX =          18
 
 POTCAR:    PAW_PBE Pt 04Feb2005                  
   SHA256 =  3ed90460adef76debcff1cfb73ee1349b515b1a3db03439735b44de3a8db7dc8 Pt/POTCAR             
   COPYR  = (c) Copyright 04Feb2005 Georg Kresse                                                    
   COPYR  = This file is part of the software VASP. Any use, copying, and all other rights are regul
   COPYR  = If you do not have a valid VASP license, you may not use, copy or distribute this file. 
   VRHFIN =Pt: s1d9                                                                                 
   LEXCH  = PE                                                                                      
   EATOM  =   729.1176 eV,   53.5886 Ry                                                             
                                                                                                    
   TITEL  = PAW_PBE Pt 04Feb2005                                                                    
   LULTRA =        F    use ultrasoft PP ?                                                          
   IUNSCR =        1    unscreen: 0-lin 1-nonlin 2-no                                               
   RPACOR =    2.330    partial core radius                                                         
   POMASS =  195.080; ZVAL   =   10.000    mass and valenz                                          
   RCORE  =    2.600    outmost cutoff radius                                                       
   RWIGS  =    2.750; RWIGS  =    1.455    wigner-seitz radius (au A)                               
   ENMAX  =  230.283; ENMIN  =  172.712 eV                                                          
   ICORE  =        3    local potential                                                             
   LCOR   =        T    correct aug charges                                                         
   LPAW   =        T    paw PP                                                                      
   EAUG   =  358.966                                                                                
   DEXC   =    0.000                                                                                
   RMAX   =    2.658    core radius for proj-oper                                                   
   RAUG   =    1.300    factor for augmentation sphere                                              
   RDEP   =    2.761    radius for radial grids                                                     
   RDEPT  =    2.203    core radius for aug-charge                                                  
                                                                                                    
   Atomic configuration                                                                             
   16 entries                                                                                       
     n  l   j            E        occ.                                                              
     1  0  0.50    -78401.1885   2.0000                                                             
     2  0  0.50    -13770.7750   2.0000                                                             
     2  1  1.50    -11931.0468   6.0000                                                             
     3  0  0.50     -3234.7234   2.0000                                                             
     3  1  1.50     -2699.2216   6.0000                                                             
     3  2  2.50     -2119.5714  10.0000                                                             
     4  0  0.50      -695.1528   2.0000                                                             
     4  1  1.50      -519.6034   6.0000                                                             
     4  2  2.50      -306.6786  10.0000                                                             
     4  3  3.50       -70.1041  14.0000                                                             
     5  0  0.50      -101.7747   2.0000                                                             
     5  1  1.50       -55.9873   6.0000                                                             
     5  2  2.50        -6.1423   9.0000                                                             
     6  0  0.50        -5.6573   1.0000                                                             
     6  1  1.50        -6.8029   0.0000                                                             
     5  3  2.50        -1.3606   0.0000                                                             
   Description                                                                                      
     l       E           TYP  RCUT    TYP  RCUT                                                     
     2     -6.1423404     23  2.500                                                                 
     2     -7.5029230     23  2.500                                                                 
     0     -5.6573207     23  2.500                                                                 
     0      0.7416693     23  2.500                                                                 
     1     -2.7211652     23  2.600                                                                 
     1     20.4087390     23  2.600                                                                 
     3     -1.3605826     23  2.500                                                                 
  local pseudopotential read in
  partial core-charges read in
  partial kinetic energy density read in
  atomic valenz-charges read in
  non local Contribution for L=           2  read in
    real space projection operators read in
  non local Contribution for L=           2  read in
    real space projection operators read in
  non local Contribution for L=           0  read in
    real space projection operators read in
  non local Contribution for L=           0  read in
    real space projection operators read in
  non local Contribution for L=           1  read in
    real space projection operators read in
  non local Contribution for L=           1  read in
    real space projection operators read in
    PAW grid and wavefunctions read in
 
   number of l-projection  operators is LMAX  =           6
   number of lm-projection operators is LMMAX =          18
 
  PAW_PBE Fe_pv 02Aug2007               :
 energy of atom  1       EATOM=-2457.4239
 kinetic energy error for atom=    0.0062 (will be added to EATOM!!)
  PAW_PBE Pt 04Feb2005                  :
 energy of atom  2       EATOM= -729.1176
 kinetic energy error for atom=    0.0032 (will be added to EATOM!!)
 
 
 POSCAR: Fe9 Pt3
  positions in direct lattice
  velocities in cartesian coordinates


 exchange-correlation table for PE
   RHO(1)=    0.500       N(1)  =     2000
   RHO(2)=  100.500       N(2)  =     4000
 


--------------------------------------------------------------------------------------------------------


 ion  position               nearest neighbor table
   1  0.000  0.500  0.167-   4 2.62   4 2.62   5 2.62   5 2.62   7 2.69   7 2.69   7 2.69   7 2.69
                            10 2.75  10 2.75  11 2.75  11 2.75
   2  0.000  0.500  0.500-  11 2.69  11 2.69   8 2.69   8 2.69   8 2.69   8 2.69  12 2.72  12 2.72
                             6 2.72   6 2.72
   3  0.000  0.500  0.833-  10 2.69  10 2.69   9 2.69   9 2.69   9 2.69   9 2.69   6 2.72   6 2.72
                            12 2.72  12 2.72
   4  0.500  0.500  0.012-   1 2.62   7 2.62   7 2.62   1 2.62  10 2.70  10 2.70  10 2.70  10 2.70

   5  0.500  0.500  0.322-   1 2.62   7 2.62   7 2.62   1 2.62  11 2.70  11 2.70  11 2.70  11 2.70

   6  0.500  0.500  0.667-  12 2.69  12 2.69  12 2.69  12 2.69   8 2.72   2 2.72   2 2.72   8 2.72
                             9 2.72   3 2.72   9 2.72   3 2.72
   7  0.500  0.000  0.167-   4 2.62   4 2.62   5 2.62   5 2.62   1 2.69   1 2.69   1 2.69   1 2.69
                            10 2.75  10 2.75  11 2.75  11 2.75
   8  0.500  0.000  0.500-  11 2.69  11 2.69   2 2.69   2 2.69   2 2.69   2 2.69  12 2.72  12 2.72
                             6 2.72   6 2.72
   9  0.500  0.000  0.833-  10 2.69  10 2.69   3 2.69   3 2.69   3 2.69   3 2.69   6 2.72   6 2.72
                            12 2.72  12 2.72
  10  0.000  0.000  0.997-   3 2.69   9 2.69   3 2.69   9 2.69   4 2.70   4 2.70   4 2.70   4 2.70
                             1 2.75   7 2.75   7 2.75   1 2.75
  11  0.000  0.000  0.337-   2 2.69   8 2.69   2 2.69   8 2.69   5 2.70   5 2.70   5 2.70   5 2.70
                             1 2.75   7 2.75   7 2.75   1 2.75
  12  0.000  0.000  0.667-   6 2.69   6 2.69   6 2.69   6 2.69   2 2.72   8 2.72   8 2.72   2 2.72
                             3 2.72   3 2.72   9 2.72   9 2.72
 
  LATTYP: Found a simple tetragonal cell.
 ALAT       =     3.8072549721
 C/A-ratio  =     3.0623217369
  
  Lattice vectors:
  
 A1 = (   3.8072549721,   0.0000000000,   0.0000000000)
 A2 = (   0.0000000000,   3.8072549721,   0.0000000000)
 A3 = (   0.0000000000,   0.0000000000,  11.6590396591)


Analysis of symmetry for initial positions (statically):
=====================================================================
 Subroutine PRICEL returns:
 Original cell was already a primitive cell.
 

 Routine SETGRP: Setting up the symmetry group for a 
 simple tetragonal supercell.


 Subroutine GETGRP returns: Found  8 space group operations
 (whereof  8 operations were pure point group operations)
 out of a pool of 16 trial point group operations.


The static configuration has the point symmetry C_4v.


Analysis of symmetry for dynamics (positions and initial velocities):
=====================================================================
 Subroutine PRICEL returns:
 Original cell was already a primitive cell.
 

 Routine SETGRP: Setting up the symmetry group for a 
 simple tetragonal supercell.


 Subroutine GETGRP returns: Found  8 space group operations
 (whereof  8 operations were pure point group operations)
 out of a pool of 16 trial point group operations.


The dynamic configuration has the point symmetry C_4v.


Analysis of structural, dynamic, and magnetic symmetry:
=====================================================================
 Subroutine PRICEL returns:
 Original cell was already a primitive cell.
 

 Routine SETGRP: Setting up the symmetry group for a 
 simple tetragonal supercell.


 Subroutine GETGRP returns: Found  8 space group operations
 (whereof  8 operations were pure point group operations)
 out of a pool of 16 trial point group operations.


The overall configuration has the point symmetry C_4v.


 Subroutine INISYM returns: Found  8 space group operations
 (whereof  8 operations are pure point group operations),
 and found     1 'primitive' translations


----------------------------------------------------------------------------------------

                                     Primitive cell                                     

  volume of cell :     169.0000

  direct lattice vectors                    reciprocal lattice vectors
     3.807254972  0.000000000  0.000000000     0.262656430  0.000000000  0.000000000
     0.000000000  3.807254972  0.000000000     0.000000000  0.262656430  0.000000000
     0.000000000  0.000000000 11.659039659     0.000000000  0.000000000  0.085770358

  length of vectors
     3.807254972  3.807254972 11.659039659     0.262656430  0.262656430  0.085770358

  position of ions in fractional coordinates (direct lattice)
     0.000000000  0.500000000  0.166668284
     0.000000000  0.500000000  0.499927432
     0.000000000  0.500000000  0.833398550
     0.500000000  0.500000000  0.011699885
     0.500000000  0.500000000  0.321660550
     0.500000000  0.500000000  0.666661205
     0.500000000  0.000000000  0.166668284
     0.500000000  0.000000000  0.499927432
     0.500000000  0.000000000  0.833398550
     0.000000000  0.000000000  0.996572388
     0.000000000  0.000000000  0.336781572
     0.000000000  0.000000000  0.666635866

  ion indices of the primitive-cell ions
   primitive index   ion index
                 1           1
                 2           2
                 3           3
                 4           4
                 5           5
                 6           6
                 7           7
                 8           8
                 9           9
                10          10
                11          11
                12          12

----------------------------------------------------------------------------------------

 
 
 KPOINTS: pymatgen with grid density = 8800 / numb

Automatic generation of k-mesh.
 Grid dimensions read from file:
 generate k-points for:   13   13    4

 Generating k-lattice:

  Cartesian coordinates                     Fractional coordinates (reciprocal lattice)
     0.020204341  0.000000000  0.000000000     0.076923077  0.000000000  0.000000000
     0.000000000  0.020204341  0.000000000     0.000000000  0.076923077  0.000000000
     0.000000000  0.000000000  0.021442589     0.000000000  0.000000000  0.250000000

  Length of vectors
     0.020204341  0.020204341  0.021442589

  Shift w.r.t. Gamma in fractional coordinates (k-lattice)
     0.000000000  0.000000000  0.000000000

 
 Subroutine IBZKPT returns following result:
 ===========================================
 
 Found     84 irreducible k-points:
 
 Following reciprocal coordinates:
            Coordinates               Weight
  0.000000  0.000000  0.000000      1.000000
  0.076923  0.000000  0.000000      4.000000
  0.153846  0.000000  0.000000      4.000000
  0.230769  0.000000  0.000000      4.000000
  0.307692  0.000000  0.000000      4.000000
  0.384615  0.000000  0.000000      4.000000
  0.461538  0.000000  0.000000      4.000000
  0.076923  0.076923  0.000000      4.000000
  0.153846  0.076923  0.000000      8.000000
  0.230769  0.076923  0.000000      8.000000
  0.307692  0.076923  0.000000      8.000000
  0.384615  0.076923  0.000000      8.000000
  0.461538  0.076923  0.000000      8.000000
  0.153846  0.153846  0.000000      4.000000
  0.230769  0.153846  0.000000      8.000000
  0.307692  0.153846  0.000000      8.000000
  0.384615  0.153846  0.000000      8.000000
  0.461538  0.153846  0.000000      8.000000
  0.230769  0.230769  0.000000      4.000000
  0.307692  0.230769  0.000000      8.000000
  0.384615  0.230769  0.000000      8.000000
  0.461538  0.230769  0.000000      8.000000
  0.307692  0.307692  0.000000      4.000000
  0.384615  0.307692  0.000000      8.000000
  0.461538  0.307692  0.000000      8.000000
  0.384615  0.384615  0.000000      4.000000
  0.461538  0.384615  0.000000      8.000000
  0.461538  0.461538  0.000000      4.000000
  0.000000  0.000000  0.250000      2.000000
  0.076923  0.000000  0.250000      8.000000
  0.153846  0.000000  0.250000      8.000000
  0.230769  0.000000  0.250000      8.000000
  0.307692  0.000000  0.250000      8.000000
  0.384615  0.000000  0.250000      8.000000
  0.461538  0.000000  0.250000      8.000000
  0.076923  0.076923  0.250000      8.000000
  0.153846  0.076923  0.250000     16.000000
  0.230769  0.076923  0.250000     16.000000
  0.307692  0.076923  0.250000     16.000000
  0.384615  0.076923  0.250000     16.000000
  0.461538  0.076923  0.250000     16.000000
  0.153846  0.153846  0.250000      8.000000
  0.230769  0.153846  0.250000     16.000000
  0.307692  0.153846  0.250000     16.000000
  0.384615  0.153846  0.250000     16.000000
  0.461538  0.153846  0.250000     16.000000
  0.230769  0.230769  0.250000      8.000000
  0.307692  0.230769  0.250000     16.000000
  0.384615  0.230769  0.250000     16.000000
  0.461538  0.230769  0.250000     16.000000
  0.307692  0.307692  0.250000      8.000000
  0.384615  0.307692  0.250000     16.000000
  0.461538  0.307692  0.250000     16.000000
  0.384615  0.384615  0.250000      8.000000
  0.461538  0.384615  0.250000     16.000000
  0.461538  0.461538  0.250000      8.000000
  0.000000  0.000000  0.500000      1.000000
  0.076923  0.000000  0.500000      4.000000
  0.153846  0.000000  0.500000      4.000000
  0.230769  0.000000  0.500000      4.000000
  0.307692  0.000000  0.500000      4.000000
  0.384615  0.000000  0.500000      4.000000
  0.461538  0.000000  0.500000      4.000000
  0.076923  0.076923  0.500000      4.000000
  0.153846  0.076923  0.500000      8.000000
  0.230769  0.076923  0.500000      8.000000
  0.307692  0.076923  0.500000      8.000000
  0.384615  0.076923  0.500000      8.000000
  0.461538  0.076923  0.500000      8.000000
  0.153846  0.153846  0.500000      4.000000
  0.230769  0.153846  0.500000      8.000000
  0.307692  0.153846  0.500000      8.000000
  0.384615  0.153846  0.500000      8.000000
  0.461538  0.153846  0.500000      8.000000
  0.230769  0.230769  0.500000      4.000000
  0.307692  0.230769  0.500000      8.000000
  0.384615  0.230769  0.500000      8.000000
  0.461538  0.230769  0.500000      8.000000
  0.307692  0.307692  0.500000      4.000000
  0.384615  0.307692  0.500000      8.000000
  0.461538  0.307692  0.500000      8.000000
  0.384615  0.384615  0.500000      4.000000
  0.461538  0.384615  0.500000      8.000000
  0.461538  0.461538  0.500000      4.000000
 
 Following cartesian coordinates:
            Coordinates               Weight
  0.000000  0.000000  0.000000      1.000000
  0.020204  0.000000  0.000000      4.000000
  0.040409  0.000000  0.000000      4.000000
  0.060613  0.000000  0.000000      4.000000
  0.080817  0.000000  0.000000      4.000000
  0.101022  0.000000  0.000000      4.000000
  0.121226  0.000000  0.000000      4.000000
  0.020204  0.020204  0.000000      4.000000
  0.040409  0.020204  0.000000      8.000000
  0.060613  0.020204  0.000000      8.000000
  0.080817  0.020204  0.000000      8.000000
  0.101022  0.020204  0.000000      8.000000
  0.121226  0.020204  0.000000      8.000000
  0.040409  0.040409  0.000000      4.000000
  0.060613  0.040409  0.000000      8.000000
  0.080817  0.040409  0.000000      8.000000
  0.101022  0.040409  0.000000      8.000000
  0.121226  0.040409  0.000000      8.000000
  0.060613  0.060613  0.000000      4.000000
  0.080817  0.060613  0.000000      8.000000
  0.101022  0.060613  0.000000      8.000000
  0.121226  0.060613  0.000000      8.000000
  0.080817  0.080817  0.000000      4.000000
  0.101022  0.080817  0.000000      8.000000
  0.121226  0.080817  0.000000      8.000000
  0.101022  0.101022  0.000000      4.000000
  0.121226  0.101022  0.000000      8.000000
  0.121226  0.121226  0.000000      4.000000
  0.000000  0.000000  0.021443      2.000000
  0.020204  0.000000  0.021443      8.000000
  0.040409  0.000000  0.021443      8.000000
  0.060613  0.000000  0.021443      8.000000
  0.080817  0.000000  0.021443      8.000000
  0.101022  0.000000  0.021443      8.000000
  0.121226  0.000000  0.021443      8.000000
  0.020204  0.020204  0.021443      8.000000
  0.040409  0.020204  0.021443     16.000000
  0.060613  0.020204  0.021443     16.000000
  0.080817  0.020204  0.021443     16.000000
  0.101022  0.020204  0.021443     16.000000
  0.121226  0.020204  0.021443     16.000000
  0.040409  0.040409  0.021443      8.000000
  0.060613  0.040409  0.021443     16.000000
  0.080817  0.040409  0.021443     16.000000
  0.101022  0.040409  0.021443     16.000000
  0.121226  0.040409  0.021443     16.000000
  0.060613  0.060613  0.021443      8.000000
  0.080817  0.060613  0.021443     16.000000
  0.101022  0.060613  0.021443     16.000000
  0.121226  0.060613  0.021443     16.000000
  0.080817  0.080817  0.021443      8.000000
  0.101022  0.080817  0.021443     16.000000
  0.121226  0.080817  0.021443     16.000000
  0.101022  0.101022  0.021443      8.000000
  0.121226  0.101022  0.021443     16.000000
  0.121226  0.121226  0.021443      8.000000
  0.000000  0.000000  0.042885      1.000000
  0.020204  0.000000  0.042885      4.000000
  0.040409  0.000000  0.042885      4.000000
  0.060613  0.000000  0.042885      4.000000
  0.080817  0.000000  0.042885      4.000000
  0.101022  0.000000  0.042885      4.000000
  0.121226  0.000000  0.042885      4.000000
  0.020204  0.020204  0.042885      4.000000
  0.040409  0.020204  0.042885      8.000000
  0.060613  0.020204  0.042885      8.000000
  0.080817  0.020204  0.042885      8.000000
  0.101022  0.020204  0.042885      8.000000
  0.121226  0.020204  0.042885      8.000000
  0.040409  0.040409  0.042885      4.000000
  0.060613  0.040409  0.042885      8.000000
  0.080817  0.040409  0.042885      8.000000
  0.101022  0.040409  0.042885      8.000000
  0.121226  0.040409  0.042885      8.000000
  0.060613  0.060613  0.042885      4.000000
  0.080817  0.060613  0.042885      8.000000
  0.101022  0.060613  0.042885      8.000000
  0.121226  0.060613  0.042885      8.000000
  0.080817  0.080817  0.042885      4.000000
  0.101022  0.080817  0.042885      8.000000
  0.121226  0.080817  0.042885      8.000000
  0.101022  0.101022  0.042885      4.000000
  0.121226  0.101022  0.042885      8.000000
  0.121226  0.121226  0.042885      4.000000
 


--------------------------------------------------------------------------------------------------------




 Dimension of arrays:
   k-points           NKPTS =     84   k-points in BZ     NKDIM =     84   number of bands    NBANDS=     96
   number of dos      NEDOS =    301   number of ions     NIONS =     12
   non local maximal  LDIM  =      6   non local SUM 2l+1 LMDIM =     18
   total plane-waves  NPLWV =  70560
   max r-space proj   IRMAX =      1   max aug-charges    IRDMAX=  25484
   dimension x,y,z NGX =    28 NGY =   28 NGZ =   90
   dimension x,y,z NGXF=    56 NGYF=   56 NGZF=  180
   support grid    NGXF=    56 NGYF=   56 NGZF=  180
   ions per type =               9   3
   NGX,Y,Z   is equivalent  to a cutoff of  12.23, 12.23, 12.83 a.u.
   NGXF,Y,Z  is equivalent  to a cutoff of  24.45, 24.45, 25.67 a.u.

 SYSTEM =  unknown system                          
 POSCAR =  Fe9 Pt3                                 

 Startparameter for this run:
   NWRITE =      2    write-flag & timer
   PREC   = accura    normal or accurate (medium, high low for compatibility)
   ISTART =      0    job   : 0-new  1-cont  2-samecut
   ICHARG =      2    charge: 1-file 2-atom 10-const
   ISPIN  =      2    spin polarized calculation?
   LNONCOLLINEAR =      F non collinear calculations
   LSORBIT =      F    spin-orbit coupling
   INIWAV =      1    electr: 0-lowe 1-rand  2-diag
   LASPH  =      F    aspherical Exc in radial PAW
 Electronic Relaxation 1
   ENCUT  =  520.0 eV  38.22 Ry    6.18 a.u.   7.08  7.08 21.68*2*pi/ulx,y,z
   ENINI  =  520.0     initial cutoff
   ENAUG  =  578.3 eV  augmentation charge cutoff
   NELM   =    200;   NELMIN=  2; NELMDL=  0     # of ELM steps 
   EDIFF  = 0.1E-05   stopping-criterion for ELM
   LREAL  =      F    real-space projection
   NLSPLINE    = F    spline interpolate recip. space projectors
   LCOMPAT=      F    compatible to vasp.4.4
   GGA_COMPAT  = T    GGA compatible to vasp.4.4-vasp.4.6
   LMAXPAW     = -100 max onsite density
   LMAXMIX     =    2 max onsite mixed and CHGCAR
   VOSKOWN=      0    Vosko Wilk Nusair interpolation
   ROPT   =    0.00000   0.00000
 Ionic relaxation
   EDIFFG = -.1E-01   stopping-criterion for IOM
   NSW    =    100    number of steps for IOM
   NBLOCK =      1;   KBLOCK =    100    inner block; outer block 
   IBRION =      2    ionic relax: 0-MD 1-quasi-New 2-CG
   NFREE  =      1    steps in history (QN), initial steepest desc. (CG)
   ISIF   =      4    stress and relaxation
   IWAVPR =     11    prediction:  0-non 1-charg 2-wave 3-comb
   ISYM   =      2    0-nonsym 1-usesym 2-fastsym
   LCORR  =      T    Harris-Foulkes like correction to forces

   POTIM  = 0.5000    time-step for ionic-motion
   TEIN   =    0.0    initial temperature
   TEBEG  =    0.0;   TEEND  =   0.0 temperature during run
   SMASS  =  -3.00    Nose mass-parameter (am)
   estimated Nose-frequenzy (Omega)   =  0.10E-29 period in steps = 0.13E+47 mass=  -0.331E-27a.u.
   SCALEE = 1.0000    scale energy and forces
   NPACO  =    256;   APACO  = 10.0  distance and # of slots for P.C.
   PSTRESS=    0.0 pullay stress

  Mass of Ions in am
   POMASS =  55.85195.08
  Ionic Valenz
   ZVAL   =  14.00 10.00
  Atomic Wigner-Seitz radii
   RWIGS  =  -1.00 -1.00
  virtual crystal weights 
   VCA    =   1.00  1.00
   NELECT =     156.0000    total number of electrons
   NUPDOWN=      -1.0000    fix difference up-down

 DOS related values:
   EMIN   =  10.00;   EMAX   =-10.00  energy-range for DOS
   EFERMI =   0.00;   METHOD = LEGACY      
   ISMEAR =     1;   SIGMA  =   0.20  broadening in eV -4-tet -1-fermi 0-gaus

 Electronic relaxation 2 (details)
   IALGO  =     58    algorithm
   LDIAG  =      T    sub-space diagonalisation (order eigenvalues)
   LSUBROT=      F    optimize rotation matrix (better conditioning)
   TURBO    =      0    0=normal 1=particle mesh
   IRESTART =      0    0=no restart 2=restart with 2 vectors
   NREBOOT  =      0    no. of reboots
   NMIN     =      0    reboot dimension
   EREF     =   0.00    reference energy to select bands
   IMIX   =      4    mixing-type and parameters
     AMIX     =   0.40;   BMIX     =  1.00
     AMIX_MAG =   1.60;   BMIX_MAG =  1.00
     AMIN     =   0.10
     WC   =   100.;   INIMIX=   1;  MIXPRE=   1;  MAXMIX= -45

 Intra band minimization:
   WEIMIN = 0.0010     energy-eigenvalue tresh-hold
   EBREAK =  0.26E-08  absolut break condition
   DEPER  =   0.30     relativ break condition  

   TIME   =   0.40     timestep for ELM

  volume/ion in A,a.u.               =      14.08        95.04
  Fermi-wavevector in a.u.,A,eV,Ry     =   1.593997  3.012217 34.570036  2.540826
  Thomas-Fermi vector in A             =   2.692140
 
 Write flags
   LWAVE        =      F    write WAVECAR
   LDOWNSAMPLE  =      F    k-point downsampling of WAVECAR
   LCHARG       =      T    write CHGCAR
   LVTOT        =      F    write LOCPOT, total local potential
   LVHAR        =      F    write LOCPOT, Hartree potential only
   WRT_POTENTIAL= false  ! write potential to hdf5 file
   LELF         =      F    write electronic localiz. function (ELF)
   LORBIT       =     11    0 simple, 1 ext, 2 COOP (PROOUT), +10 PAW based schemes


 Dipole corrections
   LMONO      =      F    monopole corrections only (constant potential shift)
   LDIPOL     =      F    correct potential (dipole corrections)
   IDIPOL     =      0    1-x, 2-y, 3-z, 4-all directions 
   EPSILON    =  1.0000000 bulk dielectric constant
   LVACPOTAV  =      F  vacuum potentials using an averaging scheme for the charge density
   VACPOTFLAT =  0.1000000 required flatness to determine vacuum potential
 Exchange correlation treatment:
   GGA     = PE    functional components
   XC_C    = 1    coefficients multiplying the functional components
   LIBXC   =     F    Libxc                    
   VOSKOWN =     0    Vosko Wilk Nusair interpolation
   LHFCALC =     F    Hartree Fock is set to
   LHFONE  =     F    Hartree Fock one center treatment
   AEXX    =    0.0000 exact exchange contribution

 Parameters of functionals:
   PE:
     No parameter
 
 Van der Waals corrections
   IVDW    =     0    specifies the selected vdW correction

 Linear response parameters
   LEPSILON=     F    determine dielectric tensor
   LRPA    =     F    only Hartree local field effects (RPA)
   LNABLA  =     F    use nabla operator in PAW spheres
   LVEL    =     F    velocity operator in full k-point grid
   CSHIFT  =0.1000    complex shift for real part using Kramers Kronig
   OMEGAMAX=  -1.0    maximum frequency
   DEG_THRESHOLD= 0.2000000E-02 threshold for treating states as degnerate
   RTIME   =   -0.100 relaxation time in fs
  (WPLASMAI=    0.000 imaginary part of plasma frequency in eV, 0.658/RTIME)
   DFIELD  = 0.0000000 0.0000000 0.0000000 field for delta impulse in time
 
  Optional k-point grid parameters
   LKPOINTS_OPT  =     F    use optional k-point grid
   KPOINTS_OPT_MODE=     1    mode for optional k-point grid
 
 Orbital magnetization related:
   ORBITALMAG=     F  switch on orbital magnetization
   LCHIMAG   =     F  perturbation theory with respect to B field
   DQ        =  0.001000  dq finite difference perturbation B field
   LLRAUG    =     F  two centre corrections for induced B field
   LBONE     =     F  B-component reconstruction in AE one-centre
   LVGVCALC  =     T  calculate vGv susceptibility
   LVGVAPPL  =     F  apply vGv susceptibility instead of pGv for G=0

 Random number generation:
   RANDOM_GENERATOR = DEFAULT
   PCG_SEED         = not used


--------------------------------------------------------------------------------------------------------


 conjugate gradient relaxation of ions
 charge density and potential will be updated during run
 spin polarized calculation
 Conjugate gradient for all bands (Freysoldt, et al. PRB 79, 241103 (2009))
 preconditioned conjugated gradient                                        
 perform sub-space diagonalisation
    before iterative eigenvector-optimisation
 modified Broyden-mixing scheme, WC =      100.0
 initial mixing is a Kerker type mixing with AMIX =  0.4000 and BMIX =      1.0000
 Hartree-type preconditioning will be used
 using additional bands           18
 reciprocal scheme for non local part
 use partial core corrections
 no Harris-corrections to forces 
 use gradient corrections 
 use of overlap-Matrix (Vanderbilt PP)
 Methfessel and Paxton  Order N= 1 SIGMA  =   0.20


--------------------------------------------------------------------------------------------------------


  energy-cutoff  :      520.00
  volume of cell :      169.00
      direct lattice vectors                 reciprocal lattice vectors
     3.807254972  0.000000000  0.000000000     0.262656430  0.000000000  0.000000000
     0.000000000  3.807254972  0.000000000     0.000000000  0.262656430  0.000000000
     0.000000000  0.000000000 11.659039659     0.000000000  0.000000000  0.085770358

  length of vectors
     3.807254972  3.807254972 11.659039659     0.262656430  0.262656430  0.085770358


 
 k-points in units of 2pi/SCALE and weight: pymatgen with grid density = 8800 / numb
   0.00000000  0.00000000  0.00000000       0.001
   0.02020434  0.00000000  0.00000000       0.006
   0.04040868  0.00000000  0.00000000       0.006
   0.06061302  0.00000000  0.00000000       0.006
   0.08081736  0.00000000  0.00000000       0.006
   0.10102170  0.00000000  0.00000000       0.006
   0.12122604  0.00000000  0.00000000       0.006
   0.02020434  0.02020434  0.00000000       0.006
   0.04040868  0.02020434  0.00000000       0.012
   0.06061302  0.02020434  0.00000000       0.012
   0.08081736  0.02020434  0.00000000       0.012
   0.10102170  0.02020434  0.00000000       0.012
   0.12122604  0.02020434  0.00000000       0.012
   0.04040868  0.04040868  0.00000000       0.006
   0.06061302  0.04040868  0.00000000       0.012
   0.08081736  0.04040868  0.00000000       0.012
   0.10102170  0.04040868  0.00000000       0.012
   0.12122604  0.04040868  0.00000000       0.012
   0.06061302  0.06061302  0.00000000       0.006
   0.08081736  0.06061302  0.00000000       0.012
   0.10102170  0.06061302  0.00000000       0.012
   0.12122604  0.06061302  0.00000000       0.012
   0.08081736  0.08081736  0.00000000       0.006
   0.10102170  0.08081736  0.00000000       0.012
   0.12122604  0.08081736  0.00000000       0.012
   0.10102170  0.10102170  0.00000000       0.006
   0.12122604  0.10102170  0.00000000       0.012
   0.12122604  0.12122604  0.00000000       0.006
   0.00000000  0.00000000  0.02144259       0.003
   0.02020434  0.00000000  0.02144259       0.012
   0.04040868  0.00000000  0.02144259       0.012
   0.06061302  0.00000000  0.02144259       0.012
   0.08081736  0.00000000  0.02144259       0.012
   0.10102170  0.00000000  0.02144259       0.012
   0.12122604  0.00000000  0.02144259       0.012
   0.02020434  0.02020434  0.02144259       0.012
   0.04040868  0.02020434  0.02144259       0.024
   0.06061302  0.02020434  0.02144259       0.024
   0.08081736  0.02020434  0.02144259       0.024
   0.10102170  0.02020434  0.02144259       0.024
   0.12122604  0.02020434  0.02144259       0.024
   0.04040868  0.04040868  0.02144259       0.012
   0.06061302  0.04040868  0.02144259       0.024
   0.08081736  0.04040868  0.02144259       0.024
   0.10102170  0.04040868  0.02144259       0.024
   0.12122604  0.04040868  0.02144259       0.024
   0.06061302  0.06061302  0.02144259       0.012
   0.08081736  0.06061302  0.02144259       0.024
   0.10102170  0.06061302  0.02144259       0.024
   0.12122604  0.06061302  0.02144259       0.024
   0.08081736  0.08081736  0.02144259       0.012
   0.10102170  0.08081736  0.02144259       0.024
   0.12122604  0.08081736  0.02144259       0.024
   0.10102170  0.10102170  0.02144259       0.012
   0.12122604  0.10102170  0.02144259       0.024
   0.12122604  0.12122604  0.02144259       0.012
   0.00000000  0.00000000  0.04288518       0.001
   0.02020434  0.00000000  0.04288518       0.006
   0.04040868  0.00000000  0.04288518       0.006
   0.06061302  0.00000000  0.04288518       0.006
   0.08081736  0.00000000  0.04288518       0.006
   0.10102170  0.00000000  0.04288518       0.006
   0.12122604  0.00000000  0.04288518       0.006
   0.02020434  0.02020434  0.04288518       0.006
   0.04040868  0.02020434  0.04288518       0.012
   0.06061302  0.02020434  0.04288518       0.012
   0.08081736  0.02020434  0.04288518       0.012
   0.10102170  0.02020434  0.04288518       0.012
   0.12122604  0.02020434  0.04288518       0.012
   0.04040868  0.04040868  0.04288518       0.006
   0.06061302  0.04040868  0.04288518       0.012
   0.08081736  0.04040868  0.04288518       0.012
   0.10102170  0.04040868  0.04288518       0.012
   0.12122604  0.04040868  0.04288518       0.012
   0.06061302  0.06061302  0.04288518       0.006
   0.08081736  0.06061302  0.04288518       0.012
   0.10102170  0.06061302  0.04288518       0.012
   0.12122604  0.06061302  0.04288518       0.012
   0.08081736  0.08081736  0.04288518       0.006
   0.10102170  0.08081736  0.04288518       0.012
   0.12122604  0.08081736  0.04288518       0.012
   0.10102170  0.10102170  0.04288518       0.006
   0.12122604  0.10102170  0.04288518       0.012
   0.12122604  0.12122604  0.04288518       0.006
 
 k-points in reciprocal lattice and weights: pymatgen with grid density = 8800 / numb
   0.00000000  0.00000000  0.00000000       0.001
   0.07692308  0.00000000  0.00000000       0.006
   0.15384615  0.00000000  0.00000000       0.006
   0.23076923  0.00000000  0.00000000       0.006
   0.30769231  0.00000000  0.00000000       0.006
   0.38461538  0.00000000  0.00000000       0.006
   0.46153846  0.00000000  0.00000000       0.006
   0.07692308  0.07692308  0.00000000       0.006
   0.15384615  0.07692308  0.00000000       0.012
   0.23076923  0.07692308  0.00000000       0.012
   0.30769231  0.07692308  0.00000000       0.012
   0.38461538  0.07692308  0.00000000       0.012
   0.46153846  0.07692308  0.00000000       0.012
   0.15384615  0.15384615  0.00000000       0.006
   0.23076923  0.15384615  0.00000000       0.012
   0.30769231  0.15384615  0.00000000       0.012
   0.38461538  0.15384615  0.00000000       0.012
   0.46153846  0.15384615  0.00000000       0.012
   0.23076923  0.23076923  0.00000000       0.006
   0.30769231  0.23076923  0.00000000       0.012
   0.38461538  0.23076923  0.00000000       0.012
   0.46153846  0.23076923  0.00000000       0.012
   0.30769231  0.30769231  0.00000000       0.006
   0.38461538  0.30769231  0.00000000       0.012
   0.46153846  0.30769231  0.00000000       0.012
   0.38461538  0.38461538  0.00000000       0.006
   0.46153846  0.38461538  0.00000000       0.012
   0.46153846  0.46153846  0.00000000       0.006
   0.00000000  0.00000000  0.25000000       0.003
   0.07692308  0.00000000  0.25000000       0.012
   0.15384615  0.00000000  0.25000000       0.012
   0.23076923  0.00000000  0.25000000       0.012
   0.30769231  0.00000000  0.25000000       0.012
   0.38461538  0.00000000  0.25000000       0.012
   0.46153846  0.00000000  0.25000000       0.012
   0.07692308  0.07692308  0.25000000       0.012
   0.15384615  0.07692308  0.25000000       0.024
   0.23076923  0.07692308  0.25000000       0.024
   0.30769231  0.07692308  0.25000000       0.024
   0.38461538  0.07692308  0.25000000       0.024
   0.46153846  0.07692308  0.25000000       0.024
   0.15384615  0.15384615  0.25000000       0.012
   0.23076923  0.15384615  0.25000000       0.024
   0.30769231  0.15384615  0.25000000       0.024
   0.38461538  0.15384615  0.25000000       0.024
   0.46153846  0.15384615  0.25000000       0.024
   0.23076923  0.23076923  0.25000000       0.012
   0.30769231  0.23076923  0.25000000       0.024
   0.38461538  0.23076923  0.25000000       0.024
   0.46153846  0.23076923  0.25000000       0.024
   0.30769231  0.30769231  0.25000000       0.012
   0.38461538  0.30769231  0.25000000       0.024
   0.46153846  0.30769231  0.25000000       0.024
   0.38461538  0.38461538  0.25000000       0.012
   0.46153846  0.38461538  0.25000000       0.024
   0.46153846  0.46153846  0.25000000       0.012
   0.00000000  0.00000000  0.50000000       0.001
   0.07692308  0.00000000  0.50000000       0.006
   0.15384615  0.00000000  0.50000000       0.006
   0.23076923  0.00000000  0.50000000       0.006
   0.30769231  0.00000000  0.50000000       0.006
   0.38461538  0.00000000  0.50000000       0.006
   0.46153846  0.00000000  0.50000000       0.006
   0.07692308  0.07692308  0.50000000       0.006
   0.15384615  0.07692308  0.50000000       0.012
   0.23076923  0.07692308  0.50000000       0.012
   0.30769231  0.07692308  0.50000000       0.012
   0.38461538  0.07692308  0.50000000       0.012
   0.46153846  0.07692308  0.50000000       0.012
   0.15384615  0.15384615  0.50000000       0.006
   0.23076923  0.15384615  0.50000000       0.012
   0.30769231  0.15384615  0.50000000       0.012
   0.38461538  0.15384615  0.50000000       0.012
   0.46153846  0.15384615  0.50000000       0.012
   0.23076923  0.23076923  0.50000000       0.006
   0.30769231  0.23076923  0.50000000       0.012
   0.38461538  0.23076923  0.50000000       0.012
   0.46153846  0.23076923  0.50000000       0.012
   0.30769231  0.30769231  0.50000000       0.006
   0.38461538  0.30769231  0.50000000       0.012
   0.46153846  0.30769231  0.50000000       0.012
   0.38461538  0.38461538  0.50000000       0.006
   0.46153846  0.38461538  0.50000000       0.012
   0.46153846  0.46153846  0.50000000       0.006
 
 position of ions in fractional coordinates (direct lattice) 
   0.00000000  0.50000000  0.16666828
   0.00000000  0.50000000  0.49992743
   0.00000000  0.50000000  0.83339855
   0.50000000  0.50000000  0.01169989
   0.50000000  0.50000000  0.32166055
   0.50000000  0.50000000  0.66666121
   0.50000000  0.00000000  0.16666828
   0.50000000  0.00000000  0.49992743
   0.50000000  0.00000000  0.83339855
   0.00000000  0.00000000  0.99657239
   0.00000000  0.00000000  0.33678157
   0.00000000  0.00000000  0.66663587
 
 position of ions in cartesian coordinates  (Angst):
   0.00000000  1.90362749  1.94319214
   0.00000000  1.90362749  5.82867376
   0.00000000  1.90362749  9.71662675
   1.90362749  1.90362749  0.13640943
   1.90362749  1.90362749  3.75025311
   1.90362749  1.90362749  7.77262943
   1.90362749  0.00000000  1.94319214
   1.90362749  0.00000000  5.82867376
   1.90362749  0.00000000  9.71662675
   0.00000000  0.00000000 11.61907700
   0.00000000  0.00000000  3.92654970
   0.00000000  0.00000000  7.77233400
 


--------------------------------------------------------------------------------------------------------


 k-point     1 :   0.0000 0.0000 0.0000  plane waves:    4531
 k-point     2 :   0.0769 0.0000 0.0000  plane waves:    4499
 k-point     3 :   0.1538 0.0000 0.0000  plane waves:    4502
 k-point     4 :   0.2308 0.0000 0.0000  plane waves:    4534
 k-point     5 :   0.3077 0.0000 0.0000  plane waves:    4572
 k-point     6 :   0.3846 0.0000 0.0000  plane waves:    4562
 k-point     7 :   0.4615 0.0000 0.0000  plane waves:    4566
 k-point     8 :   0.0769 0.0769 0.0000  plane waves:    4512
 k-point     9 :   0.1538 0.0769 0.0000  plane waves:    4514
 k-point    10 :   0.2308 0.0769 0.0000  plane waves:    4547
 k-point    11 :   0.3077 0.0769 0.0000  plane waves:    4556
 k-point    12 :   0.3846 0.0769 0.0000  plane waves:    4554
 k-point    13 :   0.4615 0.0769 0.0000  plane waves:    4555
 k-point    14 :   0.1538 0.1538 0.0000  plane waves:    4538
 k-point    15 :   0.2308 0.1538 0.0000  plane waves:    4559
 k-point    16 :   0.3077 0.1538 0.0000  plane waves:    4569
 k-point    17 :   0.3846 0.1538 0.0000  plane waves:    4564
 k-point    18 :   0.4615 0.1538 0.0000  plane waves:    4560
 k-point    19 :   0.2308 0.2308 0.0000  plane waves:    4544
 k-point    20 :   0.3077 0.2308 0.0000  plane waves:    4553
 k-point    21 :   0.3846 0.2308 0.0000  plane waves:    4561
 k-point    22 :   0.4615 0.2308 0.0000  plane waves:    4559
 k-point    23 :   0.3077 0.3077 0.0000  plane waves:    4540
 k-point    24 :   0.3846 0.3077 0.0000  plane waves:    4559
 k-point    25 :   0.4615 0.3077 0.0000  plane waves:    4568
 k-point    26 :   0.3846 0.3846 0.0000  plane waves:    4560
 k-point    27 :   0.4615 0.3846 0.0000  plane waves:    4571
 k-point    28 :   0.4615 0.4615 0.0000  plane waves:    4558
 k-point    29 :   0.0000 0.0000 0.2500  plane waves:    4503
 k-point    30 :   0.0769 0.0000 0.2500  plane waves:    4510
 k-point    31 :   0.1538 0.0000 0.2500  plane waves:    4516
 k-point    32 :   0.2308 0.0000 0.2500  plane waves:    4545
 k-point    33 :   0.3077 0.0000 0.2500  plane waves:    4564
 k-point    34 :   0.3846 0.0000 0.2500  plane waves:    4558
 k-point    35 :   0.4615 0.0000 0.2500  plane waves:    4564
 k-point    36 :   0.0769 0.0769 0.2500  plane waves:    4506
 k-point    37 :   0.1538 0.0769 0.2500  plane waves:    4521
 k-point    38 :   0.2308 0.0769 0.2500  plane waves:    4536
 k-point    39 :   0.3077 0.0769 0.2500  plane waves:    4550
 k-point    40 :   0.3846 0.0769 0.2500  plane waves:    4561
 k-point    41 :   0.4615 0.0769 0.2500  plane waves:    4552
 k-point    42 :   0.1538 0.1538 0.2500  plane waves:    4532
 k-point    43 :   0.2308 0.1538 0.2500  plane waves:    4545
 k-point    44 :   0.3077 0.1538 0.2500  plane waves:    4558
 k-point    45 :   0.3846 0.1538 0.2500  plane waves:    4562
 k-point    46 :   0.4615 0.1538 0.2500  plane waves:    4565
 k-point    47 :   0.2308 0.2308 0.2500  plane waves:    4548
 k-point    48 :   0.3077 0.2308 0.2500  plane waves:    4558
 k-point    49 :   0.3846 0.2308 0.2500  plane waves:    4562
 k-point    50 :   0.4615 0.2308 0.2500  plane waves:    4564
 k-point    51 :   0.3077 0.3077 0.2500  plane waves:    4545
 k-point    52 :   0.3846 0.3077 0.2500  plane waves:    4549
 k-point    53 :   0.4615 0.3077 0.2500  plane waves:    4568
 k-point    54 :   0.3846 0.3846 0.2500  plane waves:    4554
 k-point    55 :   0.4615 0.3846 0.2500  plane waves:    4560
 k-point    56 :   0.4615 0.4615 0.2500  plane waves:    4547
 k-point    57 :   0.0000 0.0000 0.5000  plane waves:    4508
 k-point    58 :   0.0769 0.0000 0.5000  plane waves:    4524
 k-point    59 :   0.1538 0.0000 0.5000  plane waves:    4532
 k-point    60 :   0.2308 0.0000 0.5000  plane waves:    4534
 k-point    61 :   0.3077 0.0000 0.5000  plane waves:    4544
 k-point    62 :   0.3846 0.0000 0.5000  plane waves:    4558
 k-point    63 :   0.4615 0.0000 0.5000  plane waves:    4550
 k-point    64 :   0.0769 0.0769 0.5000  plane waves:    4518
 k-point    65 :   0.1538 0.0769 0.5000  plane waves:    4530
 k-point    66 :   0.2308 0.0769 0.5000  plane waves:    4544
 k-point    67 :   0.3077 0.0769 0.5000  plane waves:    4550
 k-point    68 :   0.3846 0.0769 0.5000  plane waves:    4548
 k-point    69 :   0.4615 0.0769 0.5000  plane waves:    4538
 k-point    70 :   0.1538 0.1538 0.5000  plane waves:    4528
 k-point    71 :   0.2308 0.1538 0.5000  plane waves:    4536
 k-point    72 :   0.3077 0.1538 0.5000  plane waves:    4558
 k-point    73 :   0.3846 0.1538 0.5000  plane waves:    4554
 k-point    74 :   0.4615 0.1538 0.5000  plane waves:    4566
 k-point    75 :   0.2308 0.2308 0.5000  plane waves:    4554
 k-point    76 :   0.3077 0.2308 0.5000  plane waves:    4544
 k-point    77 :   0.3846 0.2308 0.5000  plane waves:    4564
 k-point    78 :   0.4615 0.2308 0.5000  plane waves:    4568
 k-point    79 :   0.3077 0.3077 0.5000  plane waves:    4542
 k-point    80 :   0.3846 0.3077 0.5000  plane waves:    4554
 k-point    81 :   0.4615 0.3077 0.5000  plane waves:    4562
 k-point    82 :   0.3846 0.3846 0.5000  plane waves:    4544
 k-point    83 :   0.4615 0.3846 0.5000  plane waves:    4566
 k-point    84 :   0.4615 0.4615 0.5000  plane waves:    4568

 maximum and minimum number of plane-waves per node :      4572     4499

 maximum number of plane-waves:      4572
 maximum index in each direction: 
   IXMAX=    7   IYMAX=    7   IZMAX=   21
   IXMIN=   -7   IYMIN=   -7   IZMIN=  -22


 serial   3D FFT for wavefunctions
 parallel 3D FFT for charge:
    minimum data exchange during FFTs selected (reduces bandwidth)


 total amount of memory used by VASP MPI-rank0   266327. kBytes
=======================================================================

   base      :      30000. kBytes
   nonl-proj :     111581. kBytes
   fftplans  :        955. kBytes
   grid      :       7297. kBytes
   one-center:        373. kBytes
   wavefun   :     116121. kBytes
 
     INWAV:  cpu time      0.0000: real time      0.0000
 Broyden mixing: mesh for mixing (old mesh)
   NGX = 15   NGY = 15   NGZ = 43
  (NGX  = 56   NGY  = 56   NGZ  =180)
  gives a total of   9675 points

 initial charge density was supplied:
 charge density of overlapping atoms calculated
 number of electron     156.0000000 magnetization       3.0080000
 charge density for first step will be calculated from the start-wavefunctions


--------------------------------------------------------------------------------------------------------


 Maximum index for augmentation-charges         1039 (set IRDMAX)


--------------------------------------------------------------------------------------------------------


 First call to EWALD:  gamma=   0.321
 Maximum number of real-space cells 4x 4x 2
 Maximum number of reciprocal cells 2x 2x 5

    FEWALD:  cpu time      0.0025: real time      0.0025


--------------------------------------- Ionic step        1  -------------------------------------------




--------------------------------------- Iteration      1(   1)  ---------------------------------------


    POTLOK:  cpu time      0.0318: real time      0.0323
    SETDIJ:  cpu time      0.0107: real time      0.0111
    TRIAL :  cpu time      4.6849: real time      4.7199
    CORREC:  cpu time      0.0028: real time      0.0028
    --------------------------------------------
      LOOP:  cpu time      4.7704: real time      4.8624

 eigenvalue-minimisations  : 32256
 total energy-change (2. order) : 0.1732646E+04  (-0.9411210E+04)
 number of electron     156.0000000 magnetization       3.0080000
 augmentation part      156.0000000 magnetization       3.0080000

 Free energy of the ion-electron system (eV)
  ---------------------------------------------------
  alpha Z        PSCENC =      1007.04218677
  Ewald energy   TEWEN  =    -17595.28425398
  -Hartree energ DENC   =     -6257.48756746
  -exchange      EXHF   =         0.00000000
  -V(xc)+E(xc)   XCENC  =       654.23485825
  PAW double counting   =     20093.52333153   -20817.40605147
  entropy T*S    EENTRO =        -0.00059912
  eigenvalues    EBANDS =       343.92084468
  atomic energy  EATOM  =     24304.10294433
  ---------------------------------------------------
  free energy    TOTEN  =      1732.64569352 eV

  energy without entropy =     1732.64629264  energy(sigma->0) =     1732.64589323


--------------------------------------------------------------------------------------------------------




--------------------------------------- Iteration      1(   2)  ---------------------------------------


    TRIAL :  cpu time      4.7192: real time      4.7524
    CORREC:  cpu time      0.0025: real time      0.0026
    --------------------------------------------
      LOOP:  cpu time      4.7305: real time      4.7774

 eigenvalue-minimisations  : 32288
 total energy-change (2. order) :-0.1719363E+04  (-0.1690815E+04)
 number of electron     156.0000000 magnetization       3.0080000
 augmentation part      156.0000000 magnetization       3.0080000

 Free energy of the ion-electron system (eV)
  ---------------------------------------------------
  alpha Z        PSCENC =      1007.04218677
  Ewald energy   TEWEN  =    -17595.28425398
  -Hartree energ DENC   =     -6257.48756746
  -exchange      EXHF   =         0.00000000
  -V(xc)+E(xc)   XCENC  =       654.23485825
  PAW double counting   =     20093.52333153   -20817.40605147
  entropy T*S    EENTRO =         0.00511041
  eigenvalues    EBANDS =     -1375.44807259
  atomic energy  EATOM  =     24304.10294433
  ---------------------------------------------------
  free energy    TOTEN  =        13.28248578 eV

  energy without entropy =       13.27737537  energy(sigma->0) =       13.28078231


--------------------------------------------------------------------------------------------------------




--------------------------------------- Iteration      1(   3)  ---------------------------------------


    TRIAL :  cpu time      6.1445: real time      6.1864
    CORREC:  cpu time      0.0024: real time      0.0024
    --------------------------------------------
      LOOP:  cpu time      6.1543: real time      6.2111

 eigenvalue-minimisations  : 42880
 total energy-change (2. order) :-0.1150237E+03  (-0.1137194E+03)
 number of electron     156.0000000 magnetization       3.0080000
 augmentation part      156.0000000 magnetization       3.0080000

 Free energy of the ion-electron system (eV)
  ---------------------------------------------------
  alpha Z        PSCENC =      1007.04218677
  Ewald energy   TEWEN  =    -17595.28425398
  -Hartree energ DENC   =     -6257.48756746
  -exchange      EXHF   =         0.00000000
  -V(xc)+E(xc)   XCENC  =       654.23485825
  PAW double counting   =     20093.52333153   -20817.40605147
  entropy T*S    EENTRO =         0.01692293
  eigenvalues    EBANDS =     -1490.48354013
  atomic energy  EATOM  =     24304.10294433
  ---------------------------------------------------
  free energy    TOTEN  =      -101.74116923 eV

  energy without entropy =     -101.75809216  energy(sigma->0) =     -101.74681021


--------------------------------------------------------------------------------------------------------




--------------------------------------- Iteration      1(   4)  ---------------------------------------


    TRIAL :  cpu time      4.7973: real time      4.8308
    CORREC:  cpu time      0.0024: real time      0.0024
    --------------------------------------------
      LOOP:  cpu time      4.8083: real time      4.8555

 eigenvalue-minimisations  : 32448
 total energy-change (2. order) :-0.2548294E+01  (-0.2546732E+01)
 number of electron     156.0000000 magnetization       3.0080000
 augmentation part      156.0000000 magnetization       3.0080000

 Free energy of the ion-electron system (eV)
  ---------------------------------------------------
  alpha Z        PSCENC =      1007.04218677
  Ewald energy   TEWEN  =    -17595.28425398
  -Hartree energ DENC   =     -6257.48756746
  -exchange      EXHF   =         0.00000000
  -V(xc)+E(xc)   XCENC  =       654.23485825
  PAW double counting   =     20093.52333153   -20817.40605147
  entropy T*S    EENTRO =         0.01692194
  eigenvalues    EBANDS =     -1493.03183296
  atomic energy  EATOM  =     24304.10294433
  ---------------------------------------------------
  free energy    TOTEN  =      -104.28946306 eV

  energy without entropy =     -104.30638499  energy(sigma->0) =     -104.29510370


--------------------------------------------------------------------------------------------------------




--------------------------------------- Iteration      1(   5)  ---------------------------------------


    TRIAL :  cpu time      6.1971: real time      6.2376
    CORREC:  cpu time      0.0025: real time      0.0025
    CHARGE:  cpu time      0.1640: real time      0.1653
    --------------------------------------------
      LOOP:  cpu time      6.3714: real time      6.4275

 eigenvalue-minimisations  : 41440
 total energy-change (2. order) :-0.5846451E-01  (-0.5846335E-01)
 number of electron     155.9999914 magnetization       2.9770769
 augmentation part       79.2829621 magnetization       2.0469705

 Free energy of the ion-electron system (eV)
  ---------------------------------------------------
  alpha Z        PSCENC =      1007.04218677
  Ewald energy   TEWEN  =    -17595.28425398
  -Hartree energ DENC   =     -6257.48756746
  -exchange      EXHF   =         0.00000000
  -V(xc)+E(xc)   XCENC  =       654.23485825
  PAW double counting   =     20093.52333153   -20817.40605147
  entropy T*S    EENTRO =         0.01691579
  eigenvalues    EBANDS =     -1493.09029132
  atomic energy  EATOM  =     24304.10294433
  ---------------------------------------------------
  free energy    TOTEN  =      -104.34792756 eV

  energy without entropy =     -104.36484336  energy(sigma->0) =     -104.35356616


--------------------------------------------------------------------------------------------------------




--------------------------------------- Iteration      1(   6)  ---------------------------------------


    POTLOK:  cpu time      0.0241: real time      0.0243
    SETDIJ:  cpu time      0.0077: real time      0.0078
    TRIAL :  cpu time      2.1806: real time      2.2019
    CORREC:  cpu time      0.8026: real time      0.8102
    CHARGE:  cpu time      0.1582: real time      0.1591
    --------------------------------------------
      LOOP:  cpu time      3.1944: real time      3.2247

 eigenvalue-minimisations  :     0
 total energy-change (2. order) : 0.5780141E+02  (-0.2221797E+02)
 number of electron     155.9999912 magnetization       2.5633852
 augmentation part       81.2924979 magnetization       1.9589754

 Free energy of the ion-electron system (eV)
  ---------------------------------------------------
  alpha Z        PSCENC =      1007.04218677
  Ewald energy   TEWEN  =    -17595.28425398
  -Hartree energ DENC   =     -5091.17072149
  -exchange      EXHF   =         0.00000000
  -V(xc)+E(xc)   XCENC  =       606.72656283
  PAW double counting   =     20386.75865672   -21045.77301512
  entropy T*S    EENTRO =         0.00180416
  eigenvalues    EBANDS =     -2618.96579608
  atomic energy  EATOM  =     24304.10294433
  ---------------------------------------------------
  free energy    TOTEN  =       -46.54652025 eV

  energy without entropy =      -46.54832441  energy(sigma->0) =      -46.54712164


--------------------------------------------------------------------------------------------------------




--------------------------------------- Iteration      1(   7)  ---------------------------------------


    POTLOK:  cpu time      0.0234: real time      0.0236
    SETDIJ:  cpu time      0.0075: real time      0.0075
    TRIAL :  cpu time      2.0632: real time      2.0845
    CORREC:  cpu time      0.7993: real time      0.8075
    CHARGE:  cpu time      0.1582: real time      0.1590
    --------------------------------------------
      LOOP:  cpu time      3.0618: real time      3.1055

 eigenvalue-minimisations  :     0
 total energy-change (2. order) :-0.2554847E+02  (-0.1072893E+02)
 number of electron     155.9999910 magnetization       2.8395068
 augmentation part       82.9062056 magnetization       2.0944914

 Free energy of the ion-electron system (eV)
  ---------------------------------------------------
  alpha Z        PSCENC =      1007.04218677
  Ewald energy   TEWEN  =    -17595.28425398
  -Hartree energ DENC   =     -5351.98691480
  -exchange      EXHF   =         0.00000000
  -V(xc)+E(xc)   XCENC  =       618.21057259
  PAW double counting   =     20735.77098997   -21443.82103292
  entropy T*S    EENTRO =         0.00574163
  eigenvalues    EBANDS =     -2346.13129051
  atomic energy  EATOM  =     24304.10294433
  ---------------------------------------------------
  free energy    TOTEN  =       -72.09499440 eV

  energy without entropy =      -72.10073603  energy(sigma->0) =      -72.09690828


--------------------------------------------------------------------------------------------------------




--------------------------------------- Iteration      1(   8)  ---------------------------------------


    POTLOK:  cpu time      0.0229: real time      0.0232
    SETDIJ:  cpu time      0.0081: real time      0.0082
    TRIAL :  cpu time      2.0927: real time      2.1137
    CORREC:  cpu time      0.8064: real time      0.8148
    CHARGE:  cpu time      0.1572: real time      0.1582
    --------------------------------------------
      LOOP:  cpu time      3.0959: real time      3.1415

 eigenvalue-minimisations  :     0
 total energy-change (2. order) :-0.1289147E+02  (-0.3953159E+01)
 number of electron     155.9999909 magnetization       2.9643990
 augmentation part       84.3693061 magnetization       2.1800531

 Free energy of the ion-electron system (eV)
  ---------------------------------------------------
  alpha Z        PSCENC =      1007.04218677
  Ewald energy   TEWEN  =    -17595.28425398
  -Hartree energ DENC   =     -5587.95780296
  -exchange      EXHF   =         0.00000000
  -V(xc)+E(xc)   XCENC  =       627.75307947
  PAW double counting   =     21116.55337134   -21864.19822399
  entropy T*S    EENTRO =         0.00934383
  eigenvalues    EBANDS =     -2093.00351101
  atomic energy  EATOM  =     24304.10294433
  ---------------------------------------------------
  free energy    TOTEN  =       -84.98646842 eV

  energy without entropy =      -84.99581225  energy(sigma->0) =      -84.98958303


--------------------------------------------------------------------------------------------------------




--------------------------------------- Iteration      1(   9)  ---------------------------------------


    POTLOK:  cpu time      0.0231: real time      0.0233
    SETDIJ:  cpu time      0.0080: real time      0.0080
    TRIAL :  cpu time      2.1850: real time      2.2056
    CORREC:  cpu time      0.8015: real time      0.8099
    CHARGE:  cpu time      0.1580: real time      0.1589
    --------------------------------------------
      LOOP:  cpu time      3.1834: real time      3.2282

 eigenvalue-minimisations  :     0
 total energy-change (2. order) :-0.3826652E+01  (-0.6432505E+00)
 number of electron     155.9999909 magnetization       2.8591093
 augmentation part       84.6922657 magnetization       2.1390464

 Free energy of the ion-electron system (eV)
  ---------------------------------------------------
  alpha Z        PSCENC =      1007.04218677
  Ewald energy   TEWEN  =    -17595.28425398
  -Hartree energ DENC   =     -5810.01371118
  -exchange      EXHF   =         0.00000000
  -V(xc)+E(xc)   XCENC  =       636.69899084
  PAW double counting   =     21552.64327651   -22330.79891999
  entropy T*S    EENTRO =         0.00952896
  eigenvalues    EBANDS =     -1853.21297802
  atomic energy  EATOM  =     24304.10294433
  ---------------------------------------------------
  free energy    TOTEN  =       -88.81312089 eV

  energy without entropy =      -88.82264985  energy(sigma->0) =      -88.81629721


--------------------------------------------------------------------------------------------------------




--------------------------------------- Iteration      1(  10)  ---------------------------------------


    POTLOK:  cpu time      0.0234: real time      0.0236
    SETDIJ:  cpu time      0.0073: real time      0.0074
    TRIAL :  cpu time      2.1421: real time      2.1639
    CORREC:  cpu time      0.8055: real time      0.8142
    CHARGE:  cpu time      0.1576: real time      0.1585
    --------------------------------------------
      LOOP:  cpu time      3.1437: real time      3.1911

 eigenvalue-minimisations  :     0
 total energy-change (2. order) :-0.9104772E+00  (-0.4872115E+00)
 number of electron     155.9999909 magnetization       2.7206913
 augmentation part       84.8372926 magnetization       2.0787274

 Free energy of the ion-electron system (eV)
  ---------------------------------------------------
  alpha Z        PSCENC =      1007.04218677
  Ewald energy   TEWEN  =    -17595.28425398
  -Hartree energ DENC   =     -5854.68844939
  -exchange      EXHF   =         0.00000000
  -V(xc)+E(xc)   XCENC  =       638.67075739
  PAW double counting   =     21660.54811645   -22444.06850426
  entropy T*S    EENTRO =         0.00904569
  eigenvalues    EBANDS =     -1806.05592440
  atomic energy  EATOM  =     24304.10294433
  ---------------------------------------------------
  free energy    TOTEN  =       -89.72359813 eV

  energy without entropy =      -89.73264382  energy(sigma->0) =      -89.72661336


--------------------------------------------------------------------------------------------------------




--------------------------------------- Iteration      1(  11)  ---------------------------------------


    POTLOK:  cpu time      0.0231: real time      0.0233
    SETDIJ:  cpu time      0.0082: real time      0.0082
    TRIAL :  cpu time      2.0702: real time      2.0907
    CORREC:  cpu time      0.7991: real time      0.8084
    CHARGE:  cpu time      0.1579: real time      0.1587
    --------------------------------------------
      LOOP:  cpu time      3.0813: real time      3.1125

 eigenvalue-minimisations  :     0
 total energy-change (2. order) :-0.5191744E+00  (-0.7174510E+00)
 number of electron     155.9999909 magnetization       2.6606322
 augmentation part       85.0033198 magnetization       2.0683921

 Free energy of the ion-electron system (eV)
  ---------------------------------------------------
  alpha Z        PSCENC =      1007.04218677
  Ewald energy   TEWEN  =    -17595.28425398
  -Hartree energ DENC   =     -5871.10392270
  -exchange      EXHF   =         0.00000000
  -V(xc)+E(xc)   XCENC  =       639.54870859
  PAW double counting   =     21710.41796628   -22494.10567009
  entropy T*S    EENTRO =         0.00911426
  eigenvalues    EBANDS =     -1790.86977737
  atomic energy  EATOM  =     24304.10294433
  ---------------------------------------------------
  free energy    TOTEN  =       -90.24277251 eV

  energy without entropy =      -90.25188677  energy(sigma->0) =      -90.24581059


--------------------------------------------------------------------------------------------------------




--------------------------------------- Iteration      1(  12)  ---------------------------------------


    POTLOK:  cpu time      0.0231: real time      0.0234
    SETDIJ:  cpu time      0.0078: real time      0.0078
    TRIAL :  cpu time      2.2743: real time      2.2955
    CORREC:  cpu time      0.8008: real time      0.8092
    CHARGE:  cpu time      0.1581: real time      0.1589
    --------------------------------------------
      LOOP:  cpu time      3.2743: real time      3.3183

 eigenvalue-minimisations  :     0
 total energy-change (2. order) :-0.7403318E+00  (-0.2470656E+00)
 number of electron     155.9999909 magnetization       2.7224502
 augmentation part       85.0388944 magnetization       2.1078524

 Free energy of the ion-electron system (eV)
  ---------------------------------------------------
  alpha Z        PSCENC =      1007.04218677
  Ewald energy   TEWEN  =    -17595.28425398
  -Hartree energ DENC   =     -5885.99703509
  -exchange      EXHF   =         0.00000000
  -V(xc)+E(xc)   XCENC  =       640.55459417
  PAW double counting   =     21772.27554602   -22548.86201317
  entropy T*S    EENTRO =         0.00970817
  eigenvalues    EBANDS =     -1784.82418765
  atomic energy  EATOM  =     24304.10294433
  ---------------------------------------------------
  free energy    TOTEN  =       -90.98310434 eV

  energy without entropy =      -90.99281251  energy(sigma->0) =      -90.98634040


--------------------------------------------------------------------------------------------------------




--------------------------------------- Iteration      1(  13)  ---------------------------------------


    POTLOK:  cpu time      0.0232: real time      0.0236
    SETDIJ:  cpu time      0.0080: real time      0.0081
    TRIAL :  cpu time      2.1167: real time      2.1370
    CORREC:  cpu time      0.8057: real time      0.8140
    CHARGE:  cpu time      0.1586: real time      0.1595
    --------------------------------------------
      LOOP:  cpu time      3.1214: real time      3.1654

 eigenvalue-minimisations  :     0
 total energy-change (2. order) :-0.3752459E+00  (-0.3655162E+00)
 number of electron     155.9999909 magnetization       2.8882785
 augmentation part       85.0046396 magnetization       2.1922959

 Free energy of the ion-electron system (eV)
  ---------------------------------------------------
  alpha Z        PSCENC =      1007.04218677
  Ewald energy   TEWEN  =    -17595.28425398
  -Hartree energ DENC   =     -5889.79758575
  -exchange      EXHF   =         0.00000000
  -V(xc)+E(xc)   XCENC  =       640.80393011
  PAW double counting   =     21790.34356998   -22563.78476788
  entropy T*S    EENTRO =         0.00993057
  eigenvalues    EBANDS =     -1784.79408195
  atomic energy  EATOM  =     24304.10294433
  ---------------------------------------------------
  free energy    TOTEN  =       -91.35835022 eV

  energy without entropy =      -91.36828079  energy(sigma->0) =      -91.36166041


--------------------------------------------------------------------------------------------------------




--------------------------------------- Iteration      1(  14)  ---------------------------------------


    POTLOK:  cpu time      0.0231: real time      0.0233
    SETDIJ:  cpu time      0.0077: real time      0.0078
    TRIAL :  cpu time      2.1344: real time      2.1560
    CORREC:  cpu time      0.8823: real time      0.8912
    CHARGE:  cpu time      0.1588: real time      0.1597
    --------------------------------------------
      LOOP:  cpu time      3.2162: real time      3.2608

 eigenvalue-minimisations  :     0
 total energy-change (2. order) :-0.3268625E+00  (-0.3149708E+00)
 number of electron     155.9999909 magnetization       2.7792667
 augmentation part       84.8209128 magnetization       2.1405121

 Free energy of the ion-electron system (eV)
  ---------------------------------------------------
  alpha Z        PSCENC =      1007.04218677
  Ewald energy   TEWEN  =    -17595.28425398
  -Hartree energ DENC   =     -5888.61837573
  -exchange      EXHF   =         0.00000000
  -V(xc)+E(xc)   XCENC  =       640.64141464
  PAW double counting   =     21776.61767824   -22548.81700845
  entropy T*S    EENTRO =         0.00843517
  eigenvalues    EBANDS =     -1787.37972909
  atomic energy  EATOM  =     24304.10294433
  ---------------------------------------------------
  free energy    TOTEN  =       -91.68521272 eV

  energy without entropy =      -91.69364789  energy(sigma->0) =      -91.68802444


--------------------------------------------------------------------------------------------------------




--------------------------------------- Iteration      1(  15)  ---------------------------------------


    POTLOK:  cpu time      0.0236: real time      0.0238
    SETDIJ:  cpu time      0.0071: real time      0.0072
    TRIAL :  cpu time      2.0918: real time      2.1120
    CORREC:  cpu time      0.9229: real time      0.9319
    CHARGE:  cpu time      0.1576: real time      0.1585
    --------------------------------------------
      LOOP:  cpu time      3.2116: real time      3.2561

 eigenvalue-minimisations  :     0
 total energy-change (2. order) :-0.3145876E+00  (-0.2402989E+00)
 number of electron     155.9999909 magnetization       2.9144094
 augmentation part       84.7214399 magnetization       2.2167420

 Free energy of the ion-electron system (eV)
  ---------------------------------------------------
  alpha Z        PSCENC =      1007.04218677
  Ewald energy   TEWEN  =    -17595.28425398
  -Hartree energ DENC   =     -5866.93294324
  -exchange      EXHF   =         0.00000000
  -V(xc)+E(xc)   XCENC  =       639.77818772
  PAW double counting   =     21704.63112668   -22469.43171060
  entropy T*S    EENTRO =         0.00772858
  eigenvalues    EBANDS =     -1815.91377319
  atomic energy  EATOM  =     24304.10294433
  ---------------------------------------------------
  free energy    TOTEN  =       -91.99980035 eV

  energy without entropy =      -92.00752893  energy(sigma->0) =      -92.00237654


--------------------------------------------------------------------------------------------------------




--------------------------------------- Iteration      1(  16)  ---------------------------------------


    POTLOK:  cpu time      0.0231: real time      0.0233
    SETDIJ:  cpu time      0.0077: real time      0.0077
    TRIAL :  cpu time      2.0657: real time      2.0868
    CORREC:  cpu time      0.7994: real time      0.8082
    CHARGE:  cpu time      0.1583: real time      0.1592
    --------------------------------------------
      LOOP:  cpu time      3.0621: real time      3.1081

 eigenvalue-minimisations  :     0
 total energy-change (2. order) :-0.2318583E+00  (-0.1797223E+00)
 number of electron     155.9999909 magnetization       2.8547857
 augmentation part       84.7415539 magnetization       2.1993018

 Free energy of the ion-electron system (eV)
  ---------------------------------------------------
  alpha Z        PSCENC =      1007.04218677
  Ewald energy   TEWEN  =    -17595.28425398
  -Hartree energ DENC   =     -5859.89995033
  -exchange      EXHF   =         0.00000000
  -V(xc)+E(xc)   XCENC  =       639.40469276
  PAW double counting   =     21666.96092465   -22426.73054674
  entropy T*S    EENTRO =         0.00648893
  eigenvalues    EBANDS =     -1827.83538464
  atomic energy  EATOM  =     24304.10294433
  ---------------------------------------------------
  free energy    TOTEN  =       -92.23165860 eV

  energy without entropy =      -92.23814753  energy(sigma->0) =      -92.23382158


--------------------------------------------------------------------------------------------------------




--------------------------------------- Iteration      1(  17)  ---------------------------------------


    POTLOK:  cpu time      0.0231: real time      0.0233
    SETDIJ:  cpu time      0.0081: real time      0.0082
    TRIAL :  cpu time      2.0797: real time      2.1000
    CORREC:  cpu time      0.8008: real time      0.8092
    CHARGE:  cpu time      0.1577: real time      0.1586
    --------------------------------------------
      LOOP:  cpu time      3.0775: real time      3.1227

 eigenvalue-minimisations  :     0
 total energy-change (2. order) :-0.1770220E+00  (-0.1259566E+00)
 number of electron     155.9999909 magnetization       2.9460777
 augmentation part       84.8803201 magnetization       2.2603603

 Free energy of the ion-electron system (eV)
  ---------------------------------------------------
  alpha Z        PSCENC =      1007.04218677
[...]
     34       3.9249      1.00000
     35       4.2210      1.00000
     36       4.2599      1.00000
     37       4.4133      1.00000
     38       4.4555      1.00000
     39       4.4677      1.00000
     40       5.0035      1.00000
     41       5.3352      1.00000
     42       5.5298      1.00000
     43       5.8022      1.00000
     44       5.8035      1.00000
     45       5.8065      1.00000
     46       5.8158      1.00000
     47       5.8980      1.00000
     48       5.9583      1.00000
     49       5.9964      1.00000
     50       6.0337      1.00000
     51       6.1507      1.00000
     52       6.1530      1.00000
     53       6.2542      1.00000
     54       6.3124      1.00000
     55       6.3281      1.00000
     56       6.3638      1.00000
     57       6.4522      1.00000
     58       6.6009      1.00000
     59       6.6921      1.00000
     60       6.8991      1.00000
     61       6.9869      1.00000
     62       7.3490      1.00000
     63       7.4770      1.00000
     64       7.5269      1.00000
     65       7.6581      1.00000
     66       7.6616      1.00000
     67       7.7318      1.00000
     68       7.8001      1.00000
     69       8.0664      1.00000
     70       8.0966      1.00000
     71       8.1094      1.00000
     72       8.1369      1.00001
     73       8.2056      1.00009
     74       8.2269      1.00016
     75       8.4258      1.01068
     76       8.5055      1.02729
     77       8.6177      1.01863
     78       8.6853      0.92339
     79       8.8048      0.51146
     80       8.9480      0.03795
     81       8.9509      0.03336
     82       9.0495     -0.03543
     83       9.2210     -0.00638
     84       9.5497     -0.00000
     85       9.5878     -0.00000
     86       9.5902     -0.00000
     87       9.7699     -0.00000
     88       9.7938     -0.00000
     89      10.0538     -0.00000
     90      10.1200     -0.00000
     91      10.2179     -0.00000
     92      10.3214     -0.00000
     93      10.3635     -0.00000
     94      10.7552     -0.00000
     95      10.8256     -0.00000
     96      10.9126     -0.00000


--------------------------------------------------------------------------------------------------------


 soft charge-density along one line, spin component           1
         0         1         2         3         4         5         6         7         8         9
 total charge-density along one line
 
 soft charge-density along one line, spin component           2
         0         1         2         3         4         5         6         7         8         9
 total charge-density along one line
 
 pseudopotential strength for first ion, spin component:           1
-43.494   0.000   0.000   6.982  -0.000  -0.000  -0.000   0.000
  0.000 -43.490  -0.000  -0.000   6.980   0.000   0.000   0.000
  0.000  -0.000 -43.420  -0.000   0.000   6.951   0.000   0.000
  6.982  -0.000  -0.000   5.833  -0.000  -0.000   0.000  -0.000
 -0.000   6.980   0.000  -0.000   5.834   0.000  -0.000  -0.000
 -0.000   0.000   6.951  -0.000   0.000   5.842  -0.000  -0.000
 -0.000   0.000   0.000   0.000  -0.000  -0.000  -0.884  -0.000
  0.000   0.000   0.000  -0.000  -0.000  -0.000  -0.000  -0.873
 -0.000   0.000   0.000   0.000  -0.000  -0.000  -0.000   0.000
  0.000  -0.000   0.000  -0.000   0.000  -0.000   0.000   0.000
 -0.000   0.000  -0.000   0.000   0.000   0.000  -0.000  -0.000
 -0.000   0.000   0.000   0.000  -0.000  -0.000  -1.418  -0.000
  0.000   0.000   0.000  -0.000  -0.000  -0.000  -0.000  -1.406
 -0.000   0.000   0.000   0.000  -0.000  -0.000  -0.000   0.000
  0.000  -0.000   0.000  -0.000   0.000  -0.000   0.000   0.000
 -0.000   0.000  -0.000   0.000   0.000   0.000  -0.000  -0.000
 -0.000  -0.000   0.000  -0.000  -0.000   0.000  -0.000  -0.000
 -0.000  -0.000   0.000  -0.000  -0.000   0.000  -0.000  -0.000
 pseudopotential strength for first ion, spin component:           2
-45.902   0.000   0.000   7.993  -0.000  -0.000  -0.000   0.000
  0.000 -45.857  -0.000  -0.000   7.975   0.000  -0.000   0.000
  0.000  -0.000 -45.686  -0.000   0.000   7.906   0.000  -0.000
  7.993  -0.000  -0.000   5.547  -0.000  -0.000   0.000  -0.000
 -0.000   7.975   0.000  -0.000   5.551   0.000   0.000  -0.000
 -0.000   0.000   7.906  -0.000   0.000   5.565  -0.000   0.000
 -0.000  -0.000   0.000   0.000   0.000  -0.000  -2.761  -0.000
  0.000   0.000  -0.000  -0.000  -0.000   0.000  -0.000  -2.933
 -0.000   0.000   0.000   0.000  -0.000  -0.000  -0.000   0.000
 -0.000  -0.000   0.000   0.000   0.000  -0.000   0.000   0.000
 -0.000   0.000  -0.000   0.000  -0.000  -0.000  -0.000  -0.000
 -0.000  -0.000   0.000   0.000   0.000  -0.000  -3.264  -0.000
  0.000   0.000  -0.000  -0.000  -0.000   0.000  -0.000  -3.433
 -0.000   0.000   0.000   0.000  -0.000  -0.000  -0.000   0.000
 -0.000   0.000   0.000   0.000  -0.000  -0.000   0.000   0.000
 -0.000   0.000  -0.000   0.000  -0.000   0.000  -0.000  -0.000
 -0.000  -0.000   0.000  -0.000  -0.000  -0.000  -0.000  -0.000
 -0.000  -0.000   0.000  -0.000  -0.000   0.000  -0.000  -0.000
 total augmentation occupancy for first ion, spin component:           1
  1.992   0.000   0.000  -0.028  -0.000   0.000   0.000  -0.000  -0.000   0.000   0.000   0.000   0.000   0.000   0.000   0.000
  0.000   1.992   0.000  -0.000  -0.027   0.000   0.000   0.000  -0.000  -0.000   0.000   0.000   0.000   0.000   0.000  -0.000
  0.000   0.000   1.992   0.000   0.000  -0.026   0.000   0.000   0.000  -0.000   0.000   0.000   0.000   0.000   0.000   0.000
 -0.028  -0.000   0.000   0.151   0.000   0.000   0.000   0.000   0.000  -0.000   0.000   0.000  -0.000   0.000   0.000   0.000
 -0.000  -0.027   0.000   0.000   0.156   0.000  -0.000   0.000   0.000   0.000   0.000   0.000   0.000  -0.000   0.000  -0.000
  0.000   0.000  -0.026   0.000   0.000   0.159   0.000   0.000  -0.000   0.000  -0.000   0.000   0.000   0.000  -0.000   0.000
  0.000   0.000   0.000   0.000  -0.000   0.000   2.857   0.000   0.000   0.000  -0.000  -1.494   0.000   0.000  -0.000   0.000
 -0.000   0.000   0.000   0.000   0.000   0.000   0.000   2.993   0.000   0.000   0.000   0.000  -1.857   0.000   0.000  -0.000
 -0.000  -0.000   0.000   0.000   0.000  -0.000   0.000   0.000   3.314  -0.000   0.135   0.000  -0.000  -1.814   0.000  -0.011
  0.000  -0.000  -0.000  -0.000   0.000   0.000   0.000   0.000  -0.000   2.709   0.000  -0.000   0.000   0.000  -1.388   0.000
  0.000   0.000   0.000   0.000   0.000  -0.000  -0.000   0.000   0.135   0.000   3.101  -0.000   0.000  -0.012  -0.000  -1.699
  0.000   0.000   0.000   0.000   0.000   0.000  -1.494   0.000   0.000  -0.000  -0.000   1.538   0.000   0.000  -0.000   0.000
  0.000   0.000   0.000  -0.000   0.000   0.000   0.000  -1.857  -0.000   0.000   0.000   0.000   1.933   0.000   0.000   0.000
  0.000   0.000   0.000   0.000  -0.000   0.000   0.000   0.000  -1.814   0.000  -0.012   0.000   0.000   1.604   0.000  -0.069
  0.000   0.000   0.000   0.000   0.000  -0.000  -0.000   0.000   0.000  -1.388  -0.000  -0.000   0.000   0.000   1.542   0.000
  0.000  -0.000   0.000   0.000  -0.000   0.000   0.000  -0.000  -0.011   0.000  -1.699   0.000   0.000  -0.069   0.000   1.572
  0.000   0.000   0.000   0.000  -0.000   0.000   0.000  -0.000  -0.067   0.000   0.078   0.000   0.000   0.048  -0.000   0.007
  0.000  -0.000  -0.000   0.000  -0.000   0.000   0.000   0.000   0.007  -0.000  -0.016   0.000   0.000  -0.004   0.000   0.006
 total augmentation occupancy for first ion, spin component:           2
  0.002   0.000   0.000   0.009   0.000   0.000  -0.000   0.000   0.000   0.000   0.000  -0.000  -0.000   0.000   0.000   0.000
  0.000   0.002   0.000   0.000   0.009  -0.000  -0.000   0.000   0.000   0.000   0.000   0.000   0.000  -0.000   0.000  -0.000
  0.000   0.000   0.002  -0.000   0.000   0.010  -0.000  -0.000   0.000   0.000   0.000  -0.000   0.000   0.000  -0.000   0.000
  0.009   0.000  -0.000  -0.003   0.000   0.000   0.000   0.000   0.000   0.000   0.000   0.000  -0.000   0.000   0.000   0.000
  0.000   0.009   0.000   0.000   0.006   0.000   0.000  -0.000   0.000   0.000  -0.000   0.000   0.000  -0.000   0.000   0.000
  0.000  -0.000   0.010   0.000   0.000   0.008  -0.000   0.000   0.000  -0.000   0.000   0.000   0.000   0.000  -0.000   0.000
 -0.000  -0.000  -0.000   0.000   0.000  -0.000  -2.411   0.000   0.000   0.000   0.000   1.053   0.000   0.000  -0.000   0.000
  0.000   0.000  -0.000   0.000  -0.000   0.000   0.000  -2.328   0.000   0.000   0.000   0.000   0.816   0.000   0.000  -0.000
  0.000   0.000   0.000   0.000   0.000   0.000   0.000   0.000  -2.766   0.000  -0.079   0.000   0.000   1.193   0.000   0.121
  0.000   0.000   0.000   0.000   0.000  -0.000   0.000   0.000   0.000  -2.207  -0.000   0.000   0.000  -0.000   0.957   0.000
  0.000   0.000   0.000   0.000  -0.000   0.000   0.000   0.000  -0.079  -0.000  -2.606  -0.000   0.000   0.120   0.000   1.044
 -0.000   0.000  -0.000   0.000   0.000   0.000   1.053   0.000   0.000   0.000  -0.000  -0.263   0.000   0.000  -0.000  -0.000
 -0.000   0.000   0.000  -0.000   0.000   0.000   0.000   0.816   0.000   0.000   0.000   0.000  -0.032   0.000   0.000   0.000
  0.000  -0.000   0.000   0.000  -0.000   0.000   0.000   0.000   1.193  -0.000   0.120   0.000   0.000  -0.385   0.000  -0.142
  0.000   0.000  -0.000   0.000   0.000  -0.000  -0.000   0.000   0.000   0.957   0.000  -0.000   0.000   0.000  -0.178   0.000
  0.000  -0.000   0.000   0.000   0.000   0.000   0.000  -0.000   0.121   0.000   1.044  -0.000   0.000  -0.142   0.000  -0.237
  0.000   0.000   0.000   0.000   0.000   0.000   0.000   0.000   0.008   0.000  -0.052   0.000   0.000  -0.010   0.000   0.075
  0.000  -0.000   0.000   0.000   0.000   0.000   0.000   0.000  -0.004  -0.000   0.014   0.000   0.000   0.001   0.000  -0.005


------------------------ aborting loop because EDIFF is reached ----------------------------------------





 total charge

# of ion       s       p       d       tot
------------------------------------------
    1        0.334   6.286   6.005  12.624
    2        0.327   6.280   5.971  12.577
    3        0.327   6.280   5.971  12.578
    4        0.333   6.288   5.969  12.590
    5        0.333   6.288   5.969  12.590
    6        0.330   6.287   5.967  12.583
    7        0.334   6.286   6.005  12.624
    8        0.327   6.280   5.971  12.577
    9        0.327   6.280   5.971  12.578
   10        0.733   0.593   8.004   9.330
   11        0.733   0.593   8.004   9.330
   12        0.718   0.618   7.999   9.335
--------------------------------------------------
tot          5.156  58.359  77.802 141.318



 magnetization (x)

# of ion       s       p       d       tot
------------------------------------------
    1       -0.008   0.009  -2.762  -2.761
    2        0.012   0.002   2.763   2.778
    3        0.012   0.002   2.763   2.777
    4       -0.016  -0.025  -2.757  -2.797
    5       -0.016  -0.025  -2.757  -2.797
    6        0.006  -0.017   2.928   2.917
    7       -0.008   0.009  -2.762  -2.761
    8        0.012   0.002   2.763   2.778
    9        0.012   0.002   2.763   2.777
   10        0.007   0.019  -0.105  -0.078
   11        0.007   0.019  -0.105  -0.079
   12       -0.039  -0.089   0.379   0.251
--------------------------------------------------
tot         -0.016  -0.089   3.110   3.005
 
    FORLOC:  cpu time      0.0010: real time      0.0010
    FORNL :  cpu time      0.6000: real time      0.6030
    STRESS:  cpu time      4.5758: real time      4.6132
    FORCOR:  cpu time      0.0220: real time      0.0221
    OFIELD:  cpu time      0.0002: real time      0.0002

  FORCE on cell =-STRESS in cart. coord.  units (eV):
  Direction    XX          YY          ZZ          XY          YZ          ZX
  --------------------------------------------------------------------------------------
  Alpha Z  1007.04219  1007.04219  1007.04219
  Ewald   -5843.67157 -5843.67157 -5908.33051    -0.00000     0.00000    -0.00000
  Hartree  1988.71573  1988.71573  1928.87307    -0.00000    -0.00000    -0.00000
  E(xc)    -941.60594  -941.60594  -941.53110     0.00000     0.00000     0.00000
  Local     878.32559   878.32559  1013.74504    -0.00000     0.00000    -0.00000
  n-local  -227.36516  -242.46349  -235.97220    13.09237     0.02029    -0.03013
  augment  1443.10780  1443.10780  1436.85453     0.00000    -0.00000    -0.00000
  Kinetic  1696.34045  1682.70244  1685.84410     1.24225     0.27197     0.46200
  Fock        0.00000     0.00000     0.00000     0.00000     0.00000     0.00000
  -------------------------------------------------------------------------------------
  Total     -13.47909   -13.47909   -13.47489     0.00000     0.00000     0.00000
  in kB    -127.78636  -127.78636  -127.74655     0.00000     0.00000     0.00000
  external pressure =     -127.77 kB  Pullay stress =        0.00 kB


 VOLUME and BASIS-vectors are now :
 -----------------------------------------------------------------------------
  energy-cutoff  :      520.00
  volume of cell :      169.00
      direct lattice vectors                 reciprocal lattice vectors
     3.807387975  0.000000000  0.000000000     0.262647255  0.000000000  0.000000000
     0.000000000  3.807387975  0.000000000     0.000000000  0.262647255  0.000000000
     0.000000000  0.000000000 11.658225105     0.000000000 -0.000000000  0.085776350

  length of vectors
     3.807387975  3.807387975 11.658225105     0.262647255  0.262647255  0.085776350


 FORCES acting on ions:
    Electron-Ion                     Ewald-Force                    Non-Local-Force
 -----------------------------------------------------------------------------------------------
   0.885E-14 0.133E-11 -.290E+00   -.405E-14 0.772E-14 0.295E+00   -.274E-21 -.103E-21 -.603E-02
   0.413E-14 0.104E-11 -.910E+01   -.191E-13 -.876E-14 0.103E+02   0.634E-19 0.341E-18 -.118E+01
   0.534E-14 0.251E-11 0.934E+01   0.297E-14 -.177E-14 -.105E+02   -.396E-19 0.244E-18 0.119E+01
   0.104E-11 -.642E-11 0.166E+03   -.237E-13 -.482E-14 -.163E+03   -.295E-18 -.126E-17 -.259E+01
   0.106E-11 0.684E-11 -.166E+03   0.139E-13 -.292E-13 0.164E+03   -.235E-18 0.831E-18 0.258E+01
   0.108E-11 0.670E-11 0.455E+00   0.573E-14 -.124E-14 -.456E+00   0.619E-24 0.448E-22 0.116E-02
   0.113E-11 0.464E-14 -.290E+00   0.305E-13 0.323E-13 0.295E+00   0.783E-22 0.174E-21 -.603E-02
   0.110E-11 0.146E-12 -.910E+01   -.726E-14 -.851E-14 0.103E+02   -.309E-18 -.232E-18 -.118E+01
   0.108E-11 0.172E-12 0.934E+01   0.294E-13 -.349E-14 -.105E+02   0.148E-18 -.440E-18 0.119E+01
   -.401E-13 0.224E-12 0.466E+02   0.123E-13 0.391E-14 -.469E+02   0.227E-18 -.232E-18 0.373E+00
   -.341E-13 -.224E-13 -.469E+02   -.249E-13 0.159E-13 0.472E+02   0.355E-18 -.417E-18 -.376E+00
   -.374E-13 -.362E-13 0.313E+00   -.299E-13 0.643E-14 -.316E+00   0.823E-24 0.778E-22 0.320E-02
 -----------------------------------------------------------------------------------------------
   0.644E-11 0.126E-10 0.424E-03   -.141E-13 0.848E-14 0.277E-12   -.852E-19 -.116E-17 -.693E-03
 
 
 POSITION                                       TOTAL-FORCE (eV/Angst)
 -----------------------------------------------------------------------------------
      0.00000      1.90369      1.94290        -0.000000     -0.000000     -0.001458
      0.00000      1.90369      5.82813        -0.000000     -0.000000      0.007702
      0.00000      1.90369      9.71627        -0.000000      0.000000     -0.006112
      1.90369      1.90369      0.13548         0.000000     -0.000000      0.006583
      1.90369      1.90369      3.75048        -0.000000      0.000000     -0.007001
      1.90369      1.90369      7.77238         0.000000     -0.000000     -0.000179
      1.90369      0.00000      1.94290         0.000000     -0.000000     -0.001458
      1.90369      0.00000      5.82813        -0.000000     -0.000000      0.007702
      1.90369      0.00000      9.71627        -0.000000     -0.000000     -0.006112
      0.00000      0.00000     11.61658        -0.000000     -0.000000      0.001559
      0.00000      0.00000      3.92748        -0.000000     -0.000000     -0.001373
      0.00000      0.00000      7.77235        -0.000000     -0.000000      0.000147
 -----------------------------------------------------------------------------------
    total drift:                                0.000000      0.000000     -0.000270


--------------------------------------------------------------------------------------------------------



  FREE ENERGIE OF THE ION-ELECTRON SYSTEM (eV)
  ---------------------------------------------------
  free  energy   TOTEN  =       -92.74660709 eV

  energy  without entropy=      -92.75039048  energy(sigma->0) =      -92.74786822
 
 d Force = 0.6002658E-05[ 0.660E-05, 0.540E-05]  d Energy = 0.5293052E-05 0.710E-06
 d Force =-0.1207701E+00[-0.121E+00,-0.120E+00]  d Ewald  =-0.1223063E+00 0.154E-02


--------------------------------------------------------------------------------------------------------


    POTLOK:  cpu time      0.0439: real time      0.0443


--------------------------------------------------------------------------------------------------------




--------------------------------------------------------------------------------------------------------


  
 reached required accuracy - stopping structural energy minimisation
     LOOP+:  cpu time     47.0648: real time     47.7336
    4ORBIT:  cpu time      0.0000: real time      0.0000



 total charge

# of ion       s       p       d       tot
------------------------------------------
    1        0.334   6.286   6.005  12.624
    2        0.327   6.280   5.971  12.577
    3        0.327   6.280   5.971  12.578
    4        0.333   6.288   5.969  12.590
    5        0.333   6.288   5.969  12.590
    6        0.330   6.287   5.967  12.583
    7        0.334   6.286   6.005  12.624
    8        0.327   6.280   5.971  12.577
    9        0.327   6.280   5.971  12.578
   10        0.733   0.593   8.004   9.330
   11        0.733   0.593   8.004   9.330
   12        0.718   0.618   7.999   9.335
--------------------------------------------------
tot          5.156  58.359  77.802 141.318



 magnetization (x)

# of ion       s       p       d       tot
------------------------------------------
    1       -0.008   0.009  -2.762  -2.761
    2        0.012   0.002   2.763   2.778
    3        0.012   0.002   2.763   2.777
    4       -0.016  -0.025  -2.757  -2.797
    5       -0.016  -0.025  -2.757  -2.797
    6        0.006  -0.017   2.928   2.917
    7       -0.008   0.009  -2.762  -2.761
    8        0.012   0.002   2.763   2.778
    9        0.012   0.002   2.763   2.777
   10        0.007   0.019  -0.105  -0.078
   11        0.007   0.019  -0.105  -0.079
   12       -0.039  -0.089   0.379   0.251
--------------------------------------------------
tot         -0.016  -0.089   3.110   3.005
 

 total amount of memory used by VASP MPI-rank0   266327. kBytes
=======================================================================

   base      :      30000. kBytes
   nonl-proj :     111581. kBytes
   fftplans  :        955. kBytes
   grid      :       7297. kBytes
   one-center:        373. kBytes
   wavefun   :     116121. kBytes
 
  
  
 General timing and accounting informations for this job:
 ========================================================
  
                  Total CPU time used (sec):      335.473
                            User time (sec):      328.420
                          System time (sec):        7.053
                         Elapsed time (sec):      348.493
  
                   Maximum memory used (kb):     1065296.
                   Average memory used (kb):          N/A
  
                          Minor page faults:       228672
                          Major page faults:          134
                 Voluntary context switches:        14790
