       N       E                     dE             d eps       ncg     rms          ort
DAV:   1     0.176148762255E+04    0.17615E+04   -0.91279E+04 10752   0.203E+03
DAV:   2     0.643007539659E+01   -0.17551E+04   -0.16631E+04 10752   0.484E+02
DAV:   3    -0.102131514678E+03   -0.10856E+03   -0.10706E+03 10752   0.128E+02
DAV:   4    -0.103619843555E+03   -0.14883E+01   -0.14880E+01 10752   0.151E+01
DAV:   5    -0.103646091920E+03   -0.26248E-01   -0.26248E-01 10752   0.196E+00
SDA:   6    -0.605482380907E+02    0.43098E+02   -0.26248E-01 10752   0.198E+03 0.000E+00
CGA:   7    -0.866433812609E+02   -0.26095E+02   -0.25742E+02 10752   0.156E+02-0.507E+00
CGA:   8    -0.901831554284E+02   -0.35398E+01   -0.35453E+01 10752   0.398E+02-0.120E+00
CGA:   9    -0.909881395900E+02   -0.80498E+00   -0.65506E+00 10752   0.408E+01 0.919E+01
CGA:  10    -0.911360415991E+02   -0.14790E+00   -0.15984E+00 10752   0.639E+01-0.340E+00
CGA:  11    -0.917033479544E+02   -0.56731E+00   -0.55582E+00 10752   0.252E+02 0.126E+00
CGA:  12    -0.920823165714E+02   -0.37897E+00   -0.24849E+00 10752   0.127E+02 0.148E+02
CGA:  13    -0.923188980436E+02   -0.23658E+00   -0.21907E+00 10752   0.849E+00 0.930E+00
CGA:  14    -0.923836535573E+02   -0.64756E-01   -0.65301E-01 10752   0.116E+01-0.419E-02
CGA:  15    -0.924283630955E+02   -0.44710E-01   -0.45593E-01 10752   0.110E+01-0.198E-01
CGA:  16    -0.925138611502E+02   -0.85498E-01   -0.85931E-01 10752   0.590E+00-0.323E-02
CGA:  17    -0.925300323376E+02   -0.16171E-01   -0.16796E-01 10752   0.377E+00-0.189E-01
CGA:  18    -0.925836131178E+02   -0.53581E-01   -0.53564E-01 10752   0.337E+00 0.200E-02
CGA:  19    -0.925922802857E+02   -0.86672E-02   -0.90078E-02 10752   0.155E+00-0.107E-01
CGA:  20    -0.926205241884E+02   -0.28244E-01   -0.28132E-01 10752   0.185E+00 0.194E-02
CGA:  21    -0.926269967817E+02   -0.64726E-02   -0.67180E-02 10752   0.101E+00-0.485E-02
CGA:  22    -0.926317670972E+02   -0.47703E-02   -0.49333E-02 10752   0.415E-01-0.179E-02
CGA:  23    -0.926428545850E+02   -0.11087E-01   -0.10943E-01 10752   0.223E+00 0.103E-02
CGA:  24    -0.926514173770E+02   -0.85628E-02   -0.91855E-02 10752   0.618E-01-0.116E-01
CGA:  25    -0.926568712210E+02   -0.54538E-02   -0.54912E-02 10752   0.363E-01-0.153E-04
CGA:  26    -0.926675853530E+02   -0.10714E-01   -0.10782E-01 10752   0.584E-01-0.393E-03
CGA:  27    -0.926691091992E+02   -0.15238E-02   -0.15636E-02 10752   0.591E-02-0.182E-02
CGA:  28    -0.926708886801E+02   -0.17795E-02   -0.17907E-02 10752   0.849E-02-0.602E-04
CGA:  29    -0.926712295571E+02   -0.34088E-03   -0.34195E-03 10752   0.473E-02-0.488E-04
CGA:  30    -0.926717914169E+02   -0.56186E-03   -0.56215E-03 10752   0.343E-02 0.570E-05
CGA:  31    -0.926722459356E+02   -0.45452E-03   -0.45457E-03 10752   0.394E-02 0.156E-04
CGA:  32    -0.926724270227E+02   -0.18109E-03   -0.18271E-03 10752   0.247E-02 0.652E-05
CGA:  33    -0.926728264921E+02   -0.39947E-03   -0.39780E-03 10752   0.776E-03 0.543E-04
CGA:  34    -0.926728699969E+02   -0.43505E-04   -0.44035E-04 10752   0.775E-03 0.755E-05
CGA:  35    -0.926729465673E+02   -0.76570E-04   -0.76984E-04 10752   0.495E-03 0.138E-04
CGA:  36    -0.926729857440E+02   -0.39177E-04   -0.39443E-04 10752   0.112E-03 0.575E-05
CGA:  37    -0.926729913766E+02   -0.56326E-05   -0.55798E-05 10752   0.105E-03-0.439E-06
CGA:  38    -0.926730109487E+02   -0.19572E-04   -0.20144E-04 10752   0.432E-04-0.771E-05
CGA:  39    -0.926730133376E+02   -0.23890E-05   -0.23641E-05 10752   0.433E-04-0.116E-06
CGA:  40    -0.926730171626E+02   -0.38250E-05   -0.38373E-05 10752   0.346E-04 0.539E-06
CGA:  41    -0.926730217887E+02   -0.46260E-05   -0.46113E-05 10752   0.309E-04 0.147E-05
CGA:  42    -0.926730232163E+02   -0.14276E-05   -0.14453E-05 10752   0.179E-04 0.331E-06
SDA:  43    -0.926730261491E+02   -0.29328E-05   -0.29646E-05 10752   0.165E-04-0.549E-06
CGA:  44    -0.926730268260E+02   -0.67690E-06   -0.65896E-06 10752   0.968E-05-0.125E-06
   1 F= -.92673027E+02 E0= -.92679490E+02  d E =-.926730E+02  mag=    23.2039
