       N       E                     dE             d eps       ncg     rms          rms(c)
DAV:   1     0.176320236738E+04    0.17632E+04   -0.83561E+04 43136   0.185E+03
DAV:   2     0.646582024606E+01   -0.17567E+04   -0.16644E+04 43008   0.485E+02
DAV:   3    -0.102251417642E+03   -0.10872E+03   -0.10723E+03 50528   0.128E+02
DAV:   4    -0.103743711654E+03   -0.14923E+01   -0.14918E+01 46208   0.152E+01
DAV:   5    -0.103770013569E+03   -0.26302E-01   -0.26301E-01 52896   0.197E+00    0.434E+01
DAV:   6    -0.983756089525E+02    0.53944E+01   -0.58879E+01 48544   0.488E+01    0.303E+01
DAV:   7    -0.966746366662E+02    0.17010E+01   -0.91876E+01 49856   0.418E+01    0.247E+01
DAV:   8    -0.948423810664E+02    0.18323E+01   -0.21532E+01 51968   0.204E+01    0.221E+01
DAV:   9    -0.936927186712E+02    0.11497E+01   -0.22766E+01 52096   0.179E+01    0.182E+01
DAV:  10    -0.934801392876E+02    0.21258E+00   -0.17183E+01 52352   0.141E+01    0.177E+01
DAV:  11    -0.926624530074E+02    0.81769E+00   -0.12374E+01 51328   0.117E+01    0.843E+00
DAV:  12    -0.925549602060E+02    0.10749E+00   -0.12417E+00 49632   0.571E+00    0.574E+00
DAV:  13    -0.925199984734E+02    0.34962E-01   -0.52952E-01 50080   0.429E+00    0.455E+00
DAV:  14    -0.925273485181E+02   -0.73500E-02   -0.77992E-02 50720   0.181E+00    0.394E+00
DAV:  15    -0.925663011323E+02   -0.38953E-01   -0.40591E-02 50432   0.118E+00    0.356E+00
DAV:  16    -0.926272633647E+02   -0.60962E-01   -0.78448E-02 51392   0.165E+00    0.220E+00
DAV:  17    -0.926692075207E+02   -0.41944E-01   -0.45925E-02 51296   0.133E+00    0.142E+00
DAV:  18    -0.926791043866E+02   -0.98969E-02   -0.18830E-02 50336   0.867E-01    0.547E-01
DAV:  19    -0.926808622995E+02   -0.17579E-02   -0.50318E-03 50592   0.399E-01    0.369E-01
DAV:  20    -0.926810032186E+02   -0.14092E-03   -0.17002E-03 51488   0.269E-01    0.200E-01
DAV:  21    -0.926810114400E+02   -0.82214E-05   -0.51371E-04 52928   0.148E-01    0.137E-01
DAV:  22    -0.926811083739E+02   -0.96934E-04   -0.14480E-04 52512   0.762E-02    0.703E-02
DAV:  23    -0.926811070876E+02    0.12863E-05   -0.59830E-05 52512   0.537E-02    0.222E-02
DAV:  24    -0.926811105094E+02   -0.34218E-05   -0.11849E-05 51328   0.198E-02    0.208E-02
DAV:  25    -0.926811096562E+02    0.85323E-06   -0.15291E-06 32544   0.842E-03
   1 F= -.92681110E+02 E0= -.92681110E+02  d E =0.000000E+00  mag=    23.0818
