 vasp.6.4.3 19Mar24 (build Mar 26 2024 14:05:37) complex                        
  
 executed on             LinuxIFC date 2024.12.16  08:59:00
 running  128 mpi-ranks, on    1 nodes
 distrk:  each k-point on   32 cores,    4 groups
 distr:  one band on NCORE=   1 cores,   32 groups


--------------------------------------------------------------------------------------------------------


 INCAR:
   ALGO = All
   EDIFF = 1e-06
   EDIFFG = -0.01
   ENCUT = 520
   GGA = Pe
   IBRION = 2
   ISIF = 4
   ISMEAR = 1
   ISPIN = 2
   KPAR = 4
   LCHARG = True
   LORBIT = 11
   LREAL = False
   LWAVE = False
   MAGMOM = 3*2.567 1*2.568 2*2.56 3*2.567 1*0.274 2*0.271
   NELM = 200
   NSW = 100
   PREC = Accurate
   SIGMA = 0.2

 POTCAR:    PAW_PBE Fe_pv 02Aug2007               
 POTCAR:    PAW_PBE Pt 04Feb2005                  
 -----------------------------------------------------------------------------
|                                                                             |
|           W    W    AA    RRRRR   N    N  II  N    N   GGGG   !!!           |
|           W    W   A  A   R    R  NN   N  II  NN   N  G    G  !!!           |
|           W    W  A    A  R    R  N N  N  II  N N  N  G       !!!           |
|           W WW W  AAAAAA  RRRRR   N  N N  II  N  N N  G  GGG   !            |
|           WW  WW  A    A  R   R   N   NN  II  N   NN  G    G                |
|           W    W  A    A  R    R  N    N  II  N    N   GGGG   !!!           |
|                                                                             |
|     For optimal performance we recommend to set                             |
|       NCORE = 2 up to number-of-cores-per-socket                            |
|     NCORE specifies how many cores store one orbital (NPAR=cpu/NCORE).      |
|     This setting can greatly improve the performance of VASP for DFT.       |
|     The default, NCORE=1 might be grossly inefficient on modern             |
|     multi-core architectures or massively parallel machines. Do your        |
|     own testing! More info at https://www.vasp.at/wiki/index.php/NCORE      |
|     Unfortunately you need to use the default for GW and RPA                |
|     calculations (for HF NCORE is supported but not extensively tested      |
|     yet).                                                                   |
|                                                                             |
 -----------------------------------------------------------------------------

 POTCAR:    PAW_PBE Fe_pv 02Aug2007               
   SHA256 =  5d22e414b1f82158bf2c7ecb8b97b28fd0923e48cadc1c3bf74d524558f5dd32 Fe_pv/POTCAR          
   COPYR  = (c) Copyright 02Aug2007 Georg Kresse                                                    
   COPYR  = This file is part of the software VASP. Any use, copying, and all other rights are regul
   COPYR  = If you do not have a valid VASP license, you may not use, copy or distribute this file. 
   VRHFIN =Fe:  3pd7s1                                                                              
   LEXCH  = PE                                                                                      
   EATOM  =  2457.4239 eV,  180.6156 Ry                                                             
                                                                                                    
   TITEL  = PAW_PBE Fe_pv 02Aug2007                                                                 
   LULTRA =        F    use ultrasoft PP ?                                                          
   IUNSCR =        1    unscreen: 0-lin 1-nonlin 2-no                                               
   RPACOR =    1.750    partial core radius                                                         
   POMASS =   55.847; ZVAL   =   14.000    mass and valenz                                          
   RCORE  =    2.200    outmost cutoff radius                                                       
   RWIGS  =    2.200; RWIGS  =    1.164    wigner-seitz radius (au A)                               
   ENMAX  =  293.238; ENMIN  =  219.928 eV                                                          
   ICORE  =        3    local potential                                                             
   LCOR   =        T    correct aug charges                                                         
   LPAW   =        T    paw PP                                                                      
   EAUG   =  578.342                                                                                
   DEXC   =    0.000                                                                                
   RMAX   =    2.249    core radius for proj-oper                                                   
   RAUG   =    1.300    factor for augmentation sphere                                              
   RDEP   =    2.296    radius for radial grids                                                     
   RDEPT  =    1.766    core radius for aug-charge                                                  
                                                                                                    
   Atomic configuration                                                                             
    8 entries                                                                                       
     n  l   j            E        occ.                                                              
     1  0  0.50     -6993.8440   2.0000                                                             
     2  0  0.50      -814.6047   2.0000                                                             
     2  1  1.50      -693.3689   6.0000                                                             
     3  0  0.50       -89.4732   2.0000                                                             
     3  1  1.50       -55.6373   6.0000                                                             
     3  2  2.50        -3.8151   7.0000                                                             
     4  0  0.50        -4.2551   1.0000                                                             
     4  3  2.50        -1.3606   0.0000                                                             
   Description                                                                                      
     l       E           TYP  RCUT    TYP  RCUT                                                     
     1    -55.6372668     23  2.000                                                                 
     1     -5.4423304     23  2.000                                                                 
     2     -3.8151096     23  2.200                                                                 
     2     -5.1756922     23  2.200                                                                 
     0     -4.2550951     23  2.200                                                                 
     0     27.2116520     23  2.200                                                                 
     3     -1.3605826     23  2.200                                                                 
  local pseudopotential read in
  partial core-charges read in
  partial kinetic energy density read in
  atomic valenz-charges read in
  non local Contribution for L=           1  read in
    real space projection operators read in
  non local Contribution for L=           1  read in
    real space projection operators read in
  non local Contribution for L=           2  read in
    real space projection operators read in
  non local Contribution for L=           2  read in
    real space projection operators read in
  non local Contribution for L=           0  read in
    real space projection operators read in
  non local Contribution for L=           0  read in
    real space projection operators read in
    PAW grid and wavefunctions read in
 
   number of l-projection  operators is LMAX  =           6
   number of lm-projection operators is LMMAX =          18
 
 POTCAR:    PAW_PBE Pt 04Feb2005                  
   SHA256 =  3ed90460adef76debcff1cfb73ee1349b515b1a3db03439735b44de3a8db7dc8 Pt/POTCAR             
   COPYR  = (c) Copyright 04Feb2005 Georg Kresse                                                    
   COPYR  = This file is part of the software VASP. Any use, copying, and all other rights are regul
   COPYR  = If you do not have a valid VASP license, you may not use, copy or distribute this file. 
   VRHFIN =Pt: s1d9                                                                                 
   LEXCH  = PE                                                                                      
   EATOM  =   729.1176 eV,   53.5886 Ry                                                             
                                                                                                    
   TITEL  = PAW_PBE Pt 04Feb2005                                                                    
   LULTRA =        F    use ultrasoft PP ?                                                          
   IUNSCR =        1    unscreen: 0-lin 1-nonlin 2-no                                               
   RPACOR =    2.330    partial core radius                                                         
   POMASS =  195.080; ZVAL   =   10.000    mass and valenz                                          
   RCORE  =    2.600    outmost cutoff radius                                                       
   RWIGS  =    2.750; RWIGS  =    1.455    wigner-seitz radius (au A)                               
   ENMAX  =  230.283; ENMIN  =  172.712 eV                                                          
   ICORE  =        3    local potential                                                             
   LCOR   =        T    correct aug charges                                                         
   LPAW   =        T    paw PP                                                                      
   EAUG   =  358.966                                                                                
   DEXC   =    0.000                                                                                
   RMAX   =    2.658    core radius for proj-oper                                                   
   RAUG   =    1.300    factor for augmentation sphere                                              
   RDEP   =    2.761    radius for radial grids                                                     
   RDEPT  =    2.203    core radius for aug-charge                                                  
                                                                                                    
   Atomic configuration                                                                             
   16 entries                                                                                       
     n  l   j            E        occ.                                                              
     1  0  0.50    -78401.1885   2.0000                                                             
     2  0  0.50    -13770.7750   2.0000                                                             
     2  1  1.50    -11931.0468   6.0000                                                             
     3  0  0.50     -3234.7234   2.0000                                                             
     3  1  1.50     -2699.2216   6.0000                                                             
     3  2  2.50     -2119.5714  10.0000                                                             
     4  0  0.50      -695.1528   2.0000                                                             
     4  1  1.50      -519.6034   6.0000                                                             
     4  2  2.50      -306.6786  10.0000                                                             
     4  3  3.50       -70.1041  14.0000                                                             
     5  0  0.50      -101.7747   2.0000                                                             
     5  1  1.50       -55.9873   6.0000                                                             
     5  2  2.50        -6.1423   9.0000                                                             
     6  0  0.50        -5.6573   1.0000                                                             
     6  1  1.50        -6.8029   0.0000                                                             
     5  3  2.50        -1.3606   0.0000                                                             
   Description                                                                                      
     l       E           TYP  RCUT    TYP  RCUT                                                     
     2     -6.1423404     23  2.500                                                                 
     2     -7.5029230     23  2.500                                                                 
     0     -5.6573207     23  2.500                                                                 
     0      0.7416693     23  2.500                                                                 
     1     -2.7211652     23  2.600                                                                 
     1     20.4087390     23  2.600                                                                 
     3     -1.3605826     23  2.500                                                                 
  local pseudopotential read in
  partial core-charges read in
  partial kinetic energy density read in
  atomic valenz-charges read in
  non local Contribution for L=           2  read in
    real space projection operators read in
  non local Contribution for L=           2  read in
    real space projection operators read in
  non local Contribution for L=           0  read in
    real space projection operators read in
  non local Contribution for L=           0  read in
    real space projection operators read in
  non local Contribution for L=           1  read in
    real space projection operators read in
  non local Contribution for L=           1  read in
    real space projection operators read in
    PAW grid and wavefunctions read in
 
   number of l-projection  operators is LMAX  =           6
   number of lm-projection operators is LMMAX =          18
 
  PAW_PBE Fe_pv 02Aug2007               :
 energy of atom  1       EATOM=-2457.4239
 kinetic energy error for atom=    0.0062 (will be added to EATOM!!)
  PAW_PBE Pt 04Feb2005                  :
 energy of atom  2       EATOM= -729.1176
 kinetic energy error for atom=    0.0032 (will be added to EATOM!!)
 
 
 POSCAR: Fe9 Pt3
  positions in direct lattice
  No initial velocities read in


 exchange-correlation table for PE
   RHO(1)=    0.500       N(1)  =     2000
   RHO(2)=  100.500       N(2)  =     4000
 


--------------------------------------------------------------------------------------------------------


 ion  position               nearest neighbor table
   1  0.000  0.500  0.167-   7 2.56   7 2.56   7 2.56   7 2.56   5 2.56   5 2.56  11 2.56  11 2.56
                             4 2.56  10 2.56  10 2.56   4 2.56
   2  0.000  0.500  0.500-   8 2.56   8 2.56   8 2.56   8 2.56  11 2.56  12 2.56  12 2.56  11 2.56
                             5 2.56   6 2.56   5 2.56   6 2.56
   3  0.000  0.500  0.833-   9 2.56   9 2.56   9 2.56   9 2.56   6 2.56   6 2.56  12 2.56  12 2.56
                             4 2.56  10 2.56  10 2.56   4 2.56
   4  0.500  0.500  0.000-  10 2.56  10 2.56  10 2.56  10 2.56   1 2.56   7 2.56   9 2.56   3 2.56
                             1 2.56   3 2.56   7 2.56   9 2.56
   5  0.500  0.500  0.333-  11 2.56  11 2.56  11 2.56  11 2.56   7 2.56   1 2.56   1 2.56   7 2.56
                             8 2.56   2 2.56   8 2.56   2 2.56
   6  0.500  0.500  0.667-  12 2.56  12 2.56  12 2.56  12 2.56   9 2.56   3 2.56   3 2.56   9 2.56
                             2 2.56   8 2.56   2 2.56   8 2.56
   7  0.500  0.000  0.167-   1 2.56   1 2.56   1 2.56   1 2.56   5 2.56   5 2.56  11 2.56  11 2.56
                            10 2.56  10 2.56   4 2.56   4 2.56
   8  0.500  0.000  0.500-   2 2.56   2 2.56   2 2.56   2 2.56  12 2.56  11 2.56  12 2.56  11 2.56
                             6 2.56   5 2.56   5 2.56   6 2.56
   9  0.500  0.000  0.833-   3 2.56   3 2.56   3 2.56   3 2.56   6 2.56   6 2.56  12 2.56  12 2.56
                            10 2.56  10 2.56   4 2.56   4 2.56
  10  0.000  0.000  0.000-   4 2.56   4 2.56   4 2.56   4 2.56   9 2.56   1 2.56   3 2.56   3 2.56
                             1 2.56   7 2.56   9 2.56   7 2.56
  11  0.000  0.000  0.333-   5 2.56   5 2.56   5 2.56   5 2.56   1 2.56   7 2.56   7 2.56   1 2.56
                             2 2.56   2 2.56   8 2.56   8 2.56
  12  0.000  0.000  0.667-   6 2.56   6 2.56   6 2.56   6 2.56   3 2.56   9 2.56   9 2.56   3 2.56
                             2 2.56   8 2.56   8 2.56   2 2.56
 
  LATTYP: Found a simple tetragonal cell.
 ALAT       =     3.6169695103
 C/A-ratio  =     3.0009157362
  
  Lattice vectors:
  
 A1 = (   3.6169695103,   0.0000000000,   0.0000000000)
 A2 = (   0.0000000000,   3.6169695103,   0.0000000000)
 A3 = (   0.0000000000,   0.0000000000,  10.8542207206)


Analysis of symmetry for initial positions (statically):
=====================================================================
 Subroutine PRICEL returns:
 Original cell was already a primitive cell.
 

 Routine SETGRP: Setting up the symmetry group for a 
 simple tetragonal supercell.


 Subroutine GETGRP returns: Found 16 space group operations
 (whereof 16 operations were pure point group operations)
 out of a pool of 16 trial point group operations.


The static configuration has the point symmetry D_4h.


Analysis of symmetry for dynamics (positions and initial velocities):
=====================================================================
 Subroutine PRICEL returns:
 Original cell was already a primitive cell.
 

 Routine SETGRP: Setting up the symmetry group for a 
 simple tetragonal supercell.


 Subroutine GETGRP returns: Found 16 space group operations
 (whereof 16 operations were pure point group operations)
 out of a pool of 16 trial point group operations.


The dynamic configuration has the point symmetry D_4h.


Analysis of structural, dynamic, and magnetic symmetry:
=====================================================================
 Subroutine PRICEL returns:
 Original cell was already a primitive cell.
 

 Routine SETGRP: Setting up the symmetry group for a 
 simple tetragonal supercell.


 Subroutine GETGRP returns: Found 16 space group operations
 (whereof 16 operations were pure point group operations)
 out of a pool of 16 trial point group operations.


The overall configuration has the point symmetry D_4h.


 Subroutine INISYM returns: Found 16 space group operations
 (whereof 16 operations are pure point group operations),
 and found     1 'primitive' translations


----------------------------------------------------------------------------------------

                                     Primitive cell                                     

  volume of cell :     142.0000

  direct lattice vectors                    reciprocal lattice vectors
     3.616969510  0.000000000  0.000000000     0.276474545  0.000000000  0.000000000
     0.000000000  3.616969510  0.000000000     0.000000000  0.276474545  0.000000000
     0.000000000  0.000000000 10.854220721     0.000000000  0.000000000  0.092130059

  length of vectors
     3.616969510  3.616969510 10.854220721     0.276474545  0.276474545  0.092130059

  position of ions in fractional coordinates (direct lattice)
     0.000000000  0.500000000  0.166676517
     0.000000000  0.500000000  0.500000000
     0.000000000  0.500000000  0.833323483
     0.500000000  0.500000000  0.000000000
     0.500000000  0.500000000  0.333293006
     0.500000000  0.500000000  0.666706994
     0.500000000  0.000000000  0.166676517
     0.500000000  0.000000000  0.500000000
     0.500000000  0.000000000  0.833323483
     0.000000000  0.000000000  0.000000000
     0.000000000  0.000000000  0.333309487
     0.000000000  0.000000000  0.666690513

  ion indices of the primitive-cell ions
   primitive index   ion index
                 1           1
                 2           2
                 3           3
                 4           4
                 5           5
                 6           6
                 7           7
                 8           8
                 9           9
                10          10
                11          11
                12          12

----------------------------------------------------------------------------------------

 
 
 KPOINTS: pymatgen with grid density = 8800 / numb

Automatic generation of k-mesh.
 Grid dimensions read from file:
 generate k-points for:   13   13    4

 Generating k-lattice:

  Cartesian coordinates                     Fractional coordinates (reciprocal lattice)
     0.021267273  0.000000000  0.000000000     0.076923077  0.000000000  0.000000000
     0.000000000  0.021267273  0.000000000     0.000000000  0.076923077  0.000000000
     0.000000000  0.000000000  0.023032515     0.000000000  0.000000000  0.250000000

  Length of vectors
     0.021267273  0.021267273  0.023032515

  Shift w.r.t. Gamma in fractional coordinates (k-lattice)
     0.000000000  0.000000000  0.000000000

 
 Subroutine IBZKPT returns following result:
 ===========================================
 
 Found     84 irreducible k-points:
 
 Following reciprocal coordinates:
            Coordinates               Weight
  0.000000  0.000000  0.000000      1.000000
  0.076923  0.000000  0.000000      4.000000
  0.153846  0.000000  0.000000      4.000000
  0.230769  0.000000  0.000000      4.000000
  0.307692  0.000000  0.000000      4.000000
  0.384615  0.000000  0.000000      4.000000
  0.461538  0.000000  0.000000      4.000000
  0.076923  0.076923  0.000000      4.000000
  0.153846  0.076923  0.000000      8.000000
  0.230769  0.076923  0.000000      8.000000
  0.307692  0.076923  0.000000      8.000000
  0.384615  0.076923  0.000000      8.000000
  0.461538  0.076923  0.000000      8.000000
  0.153846  0.153846  0.000000      4.000000
  0.230769  0.153846  0.000000      8.000000
  0.307692  0.153846  0.000000      8.000000
  0.384615  0.153846  0.000000      8.000000
  0.461538  0.153846  0.000000      8.000000
  0.230769  0.230769  0.000000      4.000000
  0.307692  0.230769  0.000000      8.000000
  0.384615  0.230769  0.000000      8.000000
  0.461538  0.230769  0.000000      8.000000
  0.307692  0.307692  0.000000      4.000000
  0.384615  0.307692  0.000000      8.000000
  0.461538  0.307692  0.000000      8.000000
  0.384615  0.384615  0.000000      4.000000
  0.461538  0.384615  0.000000      8.000000
  0.461538  0.461538  0.000000      4.000000
  0.000000  0.000000  0.250000      2.000000
  0.076923  0.000000  0.250000      8.000000
  0.153846  0.000000  0.250000      8.000000
  0.230769  0.000000  0.250000      8.000000
  0.307692  0.000000  0.250000      8.000000
  0.384615  0.000000  0.250000      8.000000
  0.461538  0.000000  0.250000      8.000000
  0.076923  0.076923  0.250000      8.000000
  0.153846  0.076923  0.250000     16.000000
  0.230769  0.076923  0.250000     16.000000
  0.307692  0.076923  0.250000     16.000000
  0.384615  0.076923  0.250000     16.000000
  0.461538  0.076923  0.250000     16.000000
  0.153846  0.153846  0.250000      8.000000
  0.230769  0.153846  0.250000     16.000000
  0.307692  0.153846  0.250000     16.000000
  0.384615  0.153846  0.250000     16.000000
  0.461538  0.153846  0.250000     16.000000
  0.230769  0.230769  0.250000      8.000000
  0.307692  0.230769  0.250000     16.000000
  0.384615  0.230769  0.250000     16.000000
  0.461538  0.230769  0.250000     16.000000
  0.307692  0.307692  0.250000      8.000000
  0.384615  0.307692  0.250000     16.000000
  0.461538  0.307692  0.250000     16.000000
  0.384615  0.384615  0.250000      8.000000
  0.461538  0.384615  0.250000     16.000000
  0.461538  0.461538  0.250000      8.000000
  0.000000  0.000000  0.500000      1.000000
  0.076923  0.000000  0.500000      4.000000
  0.153846  0.000000  0.500000      4.000000
  0.230769  0.000000  0.500000      4.000000
  0.307692  0.000000  0.500000      4.000000
  0.384615  0.000000  0.500000      4.000000
  0.461538  0.000000  0.500000      4.000000
  0.076923  0.076923  0.500000      4.000000
  0.153846  0.076923  0.500000      8.000000
  0.230769  0.076923  0.500000      8.000000
  0.307692  0.076923  0.500000      8.000000
  0.384615  0.076923  0.500000      8.000000
  0.461538  0.076923  0.500000      8.000000
  0.153846  0.153846  0.500000      4.000000
  0.230769  0.153846  0.500000      8.000000
  0.307692  0.153846  0.500000      8.000000
  0.384615  0.153846  0.500000      8.000000
  0.461538  0.153846  0.500000      8.000000
  0.230769  0.230769  0.500000      4.000000
  0.307692  0.230769  0.500000      8.000000
  0.384615  0.230769  0.500000      8.000000
  0.461538  0.230769  0.500000      8.000000
  0.307692  0.307692  0.500000      4.000000
  0.384615  0.307692  0.500000      8.000000
  0.461538  0.307692  0.500000      8.000000
  0.384615  0.384615  0.500000      4.000000
  0.461538  0.384615  0.500000      8.000000
  0.461538  0.461538  0.500000      4.000000
 
 Following cartesian coordinates:
            Coordinates               Weight
  0.000000  0.000000  0.000000      1.000000
  0.021267  0.000000  0.000000      4.000000
  0.042535  0.000000  0.000000      4.000000
  0.063802  0.000000  0.000000      4.000000
  0.085069  0.000000  0.000000      4.000000
  0.106336  0.000000  0.000000      4.000000
  0.127604  0.000000  0.000000      4.000000
  0.021267  0.021267  0.000000      4.000000
  0.042535  0.021267  0.000000      8.000000
  0.063802  0.021267  0.000000      8.000000
  0.085069  0.021267  0.000000      8.000000
  0.106336  0.021267  0.000000      8.000000
  0.127604  0.021267  0.000000      8.000000
  0.042535  0.042535  0.000000      4.000000
  0.063802  0.042535  0.000000      8.000000
  0.085069  0.042535  0.000000      8.000000
  0.106336  0.042535  0.000000      8.000000
  0.127604  0.042535  0.000000      8.000000
  0.063802  0.063802  0.000000      4.000000
  0.085069  0.063802  0.000000      8.000000
  0.106336  0.063802  0.000000      8.000000
  0.127604  0.063802  0.000000      8.000000
  0.085069  0.085069  0.000000      4.000000
  0.106336  0.085069  0.000000      8.000000
  0.127604  0.085069  0.000000      8.000000
  0.106336  0.106336  0.000000      4.000000
  0.127604  0.106336  0.000000      8.000000
  0.127604  0.127604  0.000000      4.000000
  0.000000  0.000000  0.023033      2.000000
  0.021267  0.000000  0.023033      8.000000
  0.042535  0.000000  0.023033      8.000000
  0.063802  0.000000  0.023033      8.000000
  0.085069  0.000000  0.023033      8.000000
  0.106336  0.000000  0.023033      8.000000
  0.127604  0.000000  0.023033      8.000000
  0.021267  0.021267  0.023033      8.000000
  0.042535  0.021267  0.023033     16.000000
  0.063802  0.021267  0.023033     16.000000
  0.085069  0.021267  0.023033     16.000000
  0.106336  0.021267  0.023033     16.000000
  0.127604  0.021267  0.023033     16.000000
  0.042535  0.042535  0.023033      8.000000
  0.063802  0.042535  0.023033     16.000000
  0.085069  0.042535  0.023033     16.000000
  0.106336  0.042535  0.023033     16.000000
  0.127604  0.042535  0.023033     16.000000
  0.063802  0.063802  0.023033      8.000000
  0.085069  0.063802  0.023033     16.000000
  0.106336  0.063802  0.023033     16.000000
  0.127604  0.063802  0.023033     16.000000
  0.085069  0.085069  0.023033      8.000000
  0.106336  0.085069  0.023033     16.000000
  0.127604  0.085069  0.023033     16.000000
  0.106336  0.106336  0.023033      8.000000
  0.127604  0.106336  0.023033     16.000000
  0.127604  0.127604  0.023033      8.000000
  0.000000  0.000000  0.046065      1.000000
  0.021267  0.000000  0.046065      4.000000
  0.042535  0.000000  0.046065      4.000000
  0.063802  0.000000  0.046065      4.000000
  0.085069  0.000000  0.046065      4.000000
  0.106336  0.000000  0.046065      4.000000
  0.127604  0.000000  0.046065      4.000000
  0.021267  0.021267  0.046065      4.000000
  0.042535  0.021267  0.046065      8.000000
  0.063802  0.021267  0.046065      8.000000
  0.085069  0.021267  0.046065      8.000000
  0.106336  0.021267  0.046065      8.000000
  0.127604  0.021267  0.046065      8.000000
  0.042535  0.042535  0.046065      4.000000
  0.063802  0.042535  0.046065      8.000000
  0.085069  0.042535  0.046065      8.000000
  0.106336  0.042535  0.046065      8.000000
  0.127604  0.042535  0.046065      8.000000
  0.063802  0.063802  0.046065      4.000000
  0.085069  0.063802  0.046065      8.000000
  0.106336  0.063802  0.046065      8.000000
  0.127604  0.063802  0.046065      8.000000
  0.085069  0.085069  0.046065      4.000000
  0.106336  0.085069  0.046065      8.000000
  0.127604  0.085069  0.046065      8.000000
  0.106336  0.106336  0.046065      4.000000
  0.127604  0.106336  0.046065      8.000000
  0.127604  0.127604  0.046065      4.000000
 


--------------------------------------------------------------------------------------------------------




 Dimension of arrays:
   k-points           NKPTS =     84   k-points in BZ     NKDIM =     84   number of bands    NBANDS=    128
   number of dos      NEDOS =    301   number of ions     NIONS =     12
   non local maximal  LDIM  =      6   non local SUM 2l+1 LMDIM =     18
   total plane-waves  NPLWV =  65856
   max r-space proj   IRMAX =      1   max aug-charges    IRDMAX=  28286
   dimension x,y,z NGX =    28 NGY =   28 NGZ =   84
   dimension x,y,z NGXF=    56 NGYF=   56 NGZF=  168
   support grid    NGXF=    56 NGYF=   56 NGZF=  168
   ions per type =               9   3
   NGX,Y,Z   is equivalent  to a cutoff of  12.87, 12.87, 12.87 a.u.
   NGXF,Y,Z  is equivalent  to a cutoff of  25.74, 25.74, 25.73 a.u.

 SYSTEM =  unknown system                          
 POSCAR =  Fe9 Pt3                                 

 Startparameter for this run:
   NWRITE =      2    write-flag & timer
   PREC   = accura    normal or accurate (medium, high low for compatibility)
   ISTART =      0    job   : 0-new  1-cont  2-samecut
   ICHARG =      2    charge: 1-file 2-atom 10-const
   ISPIN  =      2    spin polarized calculation?
   LNONCOLLINEAR =      F non collinear calculations
   LSORBIT =      F    spin-orbit coupling
   INIWAV =      1    electr: 0-lowe 1-rand  2-diag
   LASPH  =      F    aspherical Exc in radial PAW
 Electronic Relaxation 1
   ENCUT  =  520.0 eV  38.22 Ry    6.18 a.u.   6.73  6.73 20.18*2*pi/ulx,y,z
   ENINI  =  520.0     initial cutoff
   ENAUG  =  578.3 eV  augmentation charge cutoff
   NELM   =    200;   NELMIN=  2; NELMDL=  0     # of ELM steps 
   EDIFF  = 0.1E-05   stopping-criterion for ELM
   LREAL  =      F    real-space projection
   NLSPLINE    = F    spline interpolate recip. space projectors
   LCOMPAT=      F    compatible to vasp.4.4
   GGA_COMPAT  = T    GGA compatible to vasp.4.4-vasp.4.6
   LMAXPAW     = -100 max onsite density
   LMAXMIX     =    2 max onsite mixed and CHGCAR
   VOSKOWN=      0    Vosko Wilk Nusair interpolation
   ROPT   =    0.00000   0.00000
 Ionic relaxation
   EDIFFG = -.1E-01   stopping-criterion for IOM
   NSW    =    100    number of steps for IOM
   NBLOCK =      1;   KBLOCK =    100    inner block; outer block 
   IBRION =      2    ionic relax: 0-MD 1-quasi-New 2-CG
   NFREE  =      1    steps in history (QN), initial steepest desc. (CG)
   ISIF   =      4    stress and relaxation
   IWAVPR =     11    prediction:  0-non 1-charg 2-wave 3-comb
   ISYM   =      2    0-nonsym 1-usesym 2-fastsym
   LCORR  =      T    Harris-Foulkes like correction to forces

   POTIM  = 0.5000    time-step for ionic-motion
   TEIN   =    0.0    initial temperature
   TEBEG  =    0.0;   TEEND  =   0.0 temperature during run
   SMASS  =  -3.00    Nose mass-parameter (am)
   estimated Nose-frequenzy (Omega)   =  0.10E-29 period in steps = 0.13E+47 mass=  -0.299E-27a.u.
   SCALEE = 1.0000    scale energy and forces
   NPACO  =    256;   APACO  = 10.0  distance and # of slots for P.C.
   PSTRESS=    0.0 pullay stress

  Mass of Ions in am
   POMASS =  55.85195.08
  Ionic Valenz
   ZVAL   =  14.00 10.00
  Atomic Wigner-Seitz radii
   RWIGS  =  -1.00 -1.00
  virtual crystal weights 
   VCA    =   1.00  1.00
   NELECT =     156.0000    total number of electrons
   NUPDOWN=      -1.0000    fix difference up-down

 DOS related values:
   EMIN   =  10.00;   EMAX   =-10.00  energy-range for DOS
   EFERMI =   0.00;   METHOD = LEGACY      
   ISMEAR =     1;   SIGMA  =   0.20  broadening in eV -4-tet -1-fermi 0-gaus

 Electronic relaxation 2 (details)
   IALGO  =     58    algorithm
   LDIAG  =      T    sub-space diagonalisation (order eigenvalues)
   LSUBROT=      F    optimize rotation matrix (better conditioning)
   TURBO    =      0    0=normal 1=particle mesh
   IRESTART =      0    0=no restart 2=restart with 2 vectors
   NREBOOT  =      0    no. of reboots
   NMIN     =      0    reboot dimension
   EREF     =   0.00    reference energy to select bands
   IMIX   =      4    mixing-type and parameters
     AMIX     =   0.40;   BMIX     =  1.00
     AMIX_MAG =   1.60;   BMIX_MAG =  1.00
     AMIN     =   0.10
     WC   =   100.;   INIMIX=   1;  MIXPRE=   1;  MAXMIX= -45

 Intra band minimization:
   WEIMIN = 0.0010     energy-eigenvalue tresh-hold
   EBREAK =  0.20E-08  absolut break condition
   DEPER  =   0.30     relativ break condition  

   TIME   =   0.40     timestep for ELM

  volume/ion in A,a.u.               =      11.83        79.86
  Fermi-wavevector in a.u.,A,eV,Ry     =   1.689223  3.192168 38.823863  2.853473
  Thomas-Fermi vector in A             =   2.771388
 
 Write flags
   LWAVE        =      F    write WAVECAR
   LDOWNSAMPLE  =      F    k-point downsampling of WAVECAR
   LCHARG       =      T    write CHGCAR
   LVTOT        =      F    write LOCPOT, total local potential
   LVHAR        =      F    write LOCPOT, Hartree potential only
   WRT_POTENTIAL= false  ! write potential to hdf5 file
   LELF         =      F    write electronic localiz. function (ELF)
   LORBIT       =     11    0 simple, 1 ext, 2 COOP (PROOUT), +10 PAW based schemes


 Dipole corrections
   LMONO      =      F    monopole corrections only (constant potential shift)
   LDIPOL     =      F    correct potential (dipole corrections)
   IDIPOL     =      0    1-x, 2-y, 3-z, 4-all directions 
   EPSILON    =  1.0000000 bulk dielectric constant
   LVACPOTAV  =      F  vacuum potentials using an averaging scheme for the charge density
   VACPOTFLAT =  0.1000000 required flatness to determine vacuum potential
 Exchange correlation treatment:
   GGA     = PE    functional components
   XC_C    = 1    coefficients multiplying the functional components
   LIBXC   =     F    Libxc                    
   VOSKOWN =     0    Vosko Wilk Nusair interpolation
   LHFCALC =     F    Hartree Fock is set to
   LHFONE  =     F    Hartree Fock one center treatment
   AEXX    =    0.0000 exact exchange contribution

 Parameters of functionals:
   PE:
     No parameter
 
 Van der Waals corrections
   IVDW    =     0    specifies the selected vdW correction

 Linear response parameters
   LEPSILON=     F    determine dielectric tensor
   LRPA    =     F    only Hartree local field effects (RPA)
   LNABLA  =     F    use nabla operator in PAW spheres
   LVEL    =     F    velocity operator in full k-point grid
   CSHIFT  =0.1000    complex shift for real part using Kramers Kronig
   OMEGAMAX=  -1.0    maximum frequency
   DEG_THRESHOLD= 0.2000000E-02 threshold for treating states as degnerate
   RTIME   =   -0.100 relaxation time in fs
  (WPLASMAI=    0.000 imaginary part of plasma frequency in eV, 0.658/RTIME)
   DFIELD  = 0.0000000 0.0000000 0.0000000 field for delta impulse in time
 
  Optional k-point grid parameters
   LKPOINTS_OPT  =     F    use optional k-point grid
   KPOINTS_OPT_MODE=     1    mode for optional k-point grid
 
 Orbital magnetization related:
   ORBITALMAG=     F  switch on orbital magnetization
   LCHIMAG   =     F  perturbation theory with respect to B field
   DQ        =  0.001000  dq finite difference perturbation B field
   LLRAUG    =     F  two centre corrections for induced B field
   LBONE     =     F  B-component reconstruction in AE one-centre
   LVGVCALC  =     T  calculate vGv susceptibility
   LVGVAPPL  =     F  apply vGv susceptibility instead of pGv for G=0

 Random number generation:
   RANDOM_GENERATOR = DEFAULT
   PCG_SEED         = not used


--------------------------------------------------------------------------------------------------------


 conjugate gradient relaxation of ions
 charge density and potential will be updated during run
 spin polarized calculation
 Conjugate gradient for all bands (Freysoldt, et al. PRB 79, 241103 (2009))
 preconditioned conjugated gradient                                        
 perform sub-space diagonalisation
    before iterative eigenvector-optimisation
 modified Broyden-mixing scheme, WC =      100.0
 initial mixing is a Kerker type mixing with AMIX =  0.4000 and BMIX =      1.0000
 Hartree-type preconditioning will be used
 using additional bands           50
 reciprocal scheme for non local part
 use partial core corrections
 no Harris-corrections to forces 
 use gradient corrections 
 use of overlap-Matrix (Vanderbilt PP)
 Methfessel and Paxton  Order N= 1 SIGMA  =   0.20


--------------------------------------------------------------------------------------------------------


  energy-cutoff  :      520.00
  volume of cell :      142.00
      direct lattice vectors                 reciprocal lattice vectors
     3.616969510  0.000000000  0.000000000     0.276474545  0.000000000  0.000000000
     0.000000000  3.616969510  0.000000000     0.000000000  0.276474545  0.000000000
     0.000000000  0.000000000 10.854220721     0.000000000  0.000000000  0.092130059

  length of vectors
     3.616969510  3.616969510 10.854220721     0.276474545  0.276474545  0.092130059


 
 k-points in units of 2pi/SCALE and weight: pymatgen with grid density = 8800 / numb
   0.00000000  0.00000000  0.00000000       0.001
   0.02126727  0.00000000  0.00000000       0.006
   0.04253455  0.00000000  0.00000000       0.006
   0.06380182  0.00000000  0.00000000       0.006
   0.08506909  0.00000000  0.00000000       0.006
   0.10633636  0.00000000  0.00000000       0.006
   0.12760364  0.00000000  0.00000000       0.006
   0.02126727  0.02126727  0.00000000       0.006
   0.04253455  0.02126727  0.00000000       0.012
   0.06380182  0.02126727  0.00000000       0.012
   0.08506909  0.02126727  0.00000000       0.012
   0.10633636  0.02126727  0.00000000       0.012
   0.12760364  0.02126727  0.00000000       0.012
   0.04253455  0.04253455  0.00000000       0.006
   0.06380182  0.04253455  0.00000000       0.012
   0.08506909  0.04253455  0.00000000       0.012
   0.10633636  0.04253455  0.00000000       0.012
   0.12760364  0.04253455  0.00000000       0.012
   0.06380182  0.06380182  0.00000000       0.006
   0.08506909  0.06380182  0.00000000       0.012
   0.10633636  0.06380182  0.00000000       0.012
   0.12760364  0.06380182  0.00000000       0.012
   0.08506909  0.08506909  0.00000000       0.006
   0.10633636  0.08506909  0.00000000       0.012
   0.12760364  0.08506909  0.00000000       0.012
   0.10633636  0.10633636  0.00000000       0.006
   0.12760364  0.10633636  0.00000000       0.012
   0.12760364  0.12760364  0.00000000       0.006
   0.00000000  0.00000000  0.02303251       0.003
   0.02126727  0.00000000  0.02303251       0.012
   0.04253455  0.00000000  0.02303251       0.012
   0.06380182  0.00000000  0.02303251       0.012
   0.08506909  0.00000000  0.02303251       0.012
   0.10633636  0.00000000  0.02303251       0.012
   0.12760364  0.00000000  0.02303251       0.012
   0.02126727  0.02126727  0.02303251       0.012
   0.04253455  0.02126727  0.02303251       0.024
   0.06380182  0.02126727  0.02303251       0.024
   0.08506909  0.02126727  0.02303251       0.024
   0.10633636  0.02126727  0.02303251       0.024
   0.12760364  0.02126727  0.02303251       0.024
   0.04253455  0.04253455  0.02303251       0.012
   0.06380182  0.04253455  0.02303251       0.024
   0.08506909  0.04253455  0.02303251       0.024
   0.10633636  0.04253455  0.02303251       0.024
   0.12760364  0.04253455  0.02303251       0.024
   0.06380182  0.06380182  0.02303251       0.012
   0.08506909  0.06380182  0.02303251       0.024
   0.10633636  0.06380182  0.02303251       0.024
   0.12760364  0.06380182  0.02303251       0.024
   0.08506909  0.08506909  0.02303251       0.012
   0.10633636  0.08506909  0.02303251       0.024
   0.12760364  0.08506909  0.02303251       0.024
   0.10633636  0.10633636  0.02303251       0.012
   0.12760364  0.10633636  0.02303251       0.024
   0.12760364  0.12760364  0.02303251       0.012
   0.00000000  0.00000000  0.04606503       0.001
   0.02126727  0.00000000  0.04606503       0.006
   0.04253455  0.00000000  0.04606503       0.006
   0.06380182  0.00000000  0.04606503       0.006
   0.08506909  0.00000000  0.04606503       0.006
   0.10633636  0.00000000  0.04606503       0.006
   0.12760364  0.00000000  0.04606503       0.006
   0.02126727  0.02126727  0.04606503       0.006
   0.04253455  0.02126727  0.04606503       0.012
   0.06380182  0.02126727  0.04606503       0.012
   0.08506909  0.02126727  0.04606503       0.012
   0.10633636  0.02126727  0.04606503       0.012
   0.12760364  0.02126727  0.04606503       0.012
   0.04253455  0.04253455  0.04606503       0.006
   0.06380182  0.04253455  0.04606503       0.012
   0.08506909  0.04253455  0.04606503       0.012
   0.10633636  0.04253455  0.04606503       0.012
   0.12760364  0.04253455  0.04606503       0.012
   0.06380182  0.06380182  0.04606503       0.006
   0.08506909  0.06380182  0.04606503       0.012
   0.10633636  0.06380182  0.04606503       0.012
   0.12760364  0.06380182  0.04606503       0.012
   0.08506909  0.08506909  0.04606503       0.006
   0.10633636  0.08506909  0.04606503       0.012
   0.12760364  0.08506909  0.04606503       0.012
   0.10633636  0.10633636  0.04606503       0.006
   0.12760364  0.10633636  0.04606503       0.012
   0.12760364  0.12760364  0.04606503       0.006
 
 k-points in reciprocal lattice and weights: pymatgen with grid density = 8800 / numb
   0.00000000  0.00000000  0.00000000       0.001
   0.07692308  0.00000000  0.00000000       0.006
   0.15384615  0.00000000  0.00000000       0.006
   0.23076923  0.00000000  0.00000000       0.006
   0.30769231  0.00000000  0.00000000       0.006
   0.38461538  0.00000000  0.00000000       0.006
   0.46153846  0.00000000  0.00000000       0.006
   0.07692308  0.07692308  0.00000000       0.006
   0.15384615  0.07692308  0.00000000       0.012
   0.23076923  0.07692308  0.00000000       0.012
   0.30769231  0.07692308  0.00000000       0.012
   0.38461538  0.07692308  0.00000000       0.012
   0.46153846  0.07692308  0.00000000       0.012
   0.15384615  0.15384615  0.00000000       0.006
   0.23076923  0.15384615  0.00000000       0.012
   0.30769231  0.15384615  0.00000000       0.012
   0.38461538  0.15384615  0.00000000       0.012
   0.46153846  0.15384615  0.00000000       0.012
   0.23076923  0.23076923  0.00000000       0.006
   0.30769231  0.23076923  0.00000000       0.012
   0.38461538  0.23076923  0.00000000       0.012
   0.46153846  0.23076923  0.00000000       0.012
   0.30769231  0.30769231  0.00000000       0.006
   0.38461538  0.30769231  0.00000000       0.012
   0.46153846  0.30769231  0.00000000       0.012
   0.38461538  0.38461538  0.00000000       0.006
   0.46153846  0.38461538  0.00000000       0.012
   0.46153846  0.46153846  0.00000000       0.006
   0.00000000  0.00000000  0.25000000       0.003
   0.07692308  0.00000000  0.25000000       0.012
   0.15384615  0.00000000  0.25000000       0.012
   0.23076923  0.00000000  0.25000000       0.012
   0.30769231  0.00000000  0.25000000       0.012
   0.38461538  0.00000000  0.25000000       0.012
   0.46153846  0.00000000  0.25000000       0.012
   0.07692308  0.07692308  0.25000000       0.012
   0.15384615  0.07692308  0.25000000       0.024
   0.23076923  0.07692308  0.25000000       0.024
   0.30769231  0.07692308  0.25000000       0.024
   0.38461538  0.07692308  0.25000000       0.024
   0.46153846  0.07692308  0.25000000       0.024
   0.15384615  0.15384615  0.25000000       0.012
   0.23076923  0.15384615  0.25000000       0.024
   0.30769231  0.15384615  0.25000000       0.024
   0.38461538  0.15384615  0.25000000       0.024
   0.46153846  0.15384615  0.25000000       0.024
   0.23076923  0.23076923  0.25000000       0.012
   0.30769231  0.23076923  0.25000000       0.024
   0.38461538  0.23076923  0.25000000       0.024
   0.46153846  0.23076923  0.25000000       0.024
   0.30769231  0.30769231  0.25000000       0.012
   0.38461538  0.30769231  0.25000000       0.024
   0.46153846  0.30769231  0.25000000       0.024
   0.38461538  0.38461538  0.25000000       0.012
   0.46153846  0.38461538  0.25000000       0.024
   0.46153846  0.46153846  0.25000000       0.012
   0.00000000  0.00000000  0.50000000       0.001
   0.07692308  0.00000000  0.50000000       0.006
   0.15384615  0.00000000  0.50000000       0.006
   0.23076923  0.00000000  0.50000000       0.006
   0.30769231  0.00000000  0.50000000       0.006
   0.38461538  0.00000000  0.50000000       0.006
   0.46153846  0.00000000  0.50000000       0.006
   0.07692308  0.07692308  0.50000000       0.006
   0.15384615  0.07692308  0.50000000       0.012
   0.23076923  0.07692308  0.50000000       0.012
   0.30769231  0.07692308  0.50000000       0.012
   0.38461538  0.07692308  0.50000000       0.012
   0.46153846  0.07692308  0.50000000       0.012
   0.15384615  0.15384615  0.50000000       0.006
   0.23076923  0.15384615  0.50000000       0.012
   0.30769231  0.15384615  0.50000000       0.012
   0.38461538  0.15384615  0.50000000       0.012
   0.46153846  0.15384615  0.50000000       0.012
   0.23076923  0.23076923  0.50000000       0.006
   0.30769231  0.23076923  0.50000000       0.012
   0.38461538  0.23076923  0.50000000       0.012
   0.46153846  0.23076923  0.50000000       0.012
   0.30769231  0.30769231  0.50000000       0.006
   0.38461538  0.30769231  0.50000000       0.012
   0.46153846  0.30769231  0.50000000       0.012
   0.38461538  0.38461538  0.50000000       0.006
   0.46153846  0.38461538  0.50000000       0.012
   0.46153846  0.46153846  0.50000000       0.006
 
 position of ions in fractional coordinates (direct lattice) 
   0.00000000  0.50000000  0.16667652
   0.00000000  0.50000000  0.50000000
   0.00000000  0.50000000  0.83332348
   0.50000000  0.50000000  0.00000000
   0.50000000  0.50000000  0.33329301
   0.50000000  0.50000000  0.66670699
   0.50000000  0.00000000  0.16667652
   0.50000000  0.00000000  0.50000000
   0.50000000  0.00000000  0.83332348
   0.00000000  0.00000000  0.00000000
   0.00000000  0.00000000  0.33330949
   0.00000000  0.00000000  0.66669051
 
 position of ions in cartesian coordinates  (Angst):
   0.00000000  1.80848476  1.80914371
   0.00000000  1.80848476  5.42711036
   0.00000000  1.80848476  9.04507701
   1.80848476  1.80848476  0.00000000
   1.80848476  1.80848476  3.61763585
   1.80848476  1.80848476  7.23658487
   1.80848476  0.00000000  1.80914371
   1.80848476  0.00000000  5.42711036
   1.80848476  0.00000000  9.04507701
   0.00000000  0.00000000  0.00000000
   0.00000000  0.00000000  3.61781474
   0.00000000  0.00000000  7.23640598
 


--------------------------------------------------------------------------------------------------------


 k-point     1 :   0.0000 0.0000 0.0000  plane waves:    3865
 k-point     2 :   0.0769 0.0000 0.0000  plane waves:    3829
 k-point     3 :   0.1538 0.0000 0.0000  plane waves:    3835
 k-point     4 :   0.2308 0.0000 0.0000  plane waves:    3837
 k-point     5 :   0.3077 0.0000 0.0000  plane waves:    3828
 k-point     6 :   0.3846 0.0000 0.0000  plane waves:    3834
 k-point     7 :   0.4615 0.0000 0.0000  plane waves:    3812
 k-point     8 :   0.0769 0.0769 0.0000  plane waves:    3827
 k-point     9 :   0.1538 0.0769 0.0000  plane waves:    3830
 k-point    10 :   0.2308 0.0769 0.0000  plane waves:    3825
 k-point    11 :   0.3077 0.0769 0.0000  plane waves:    3830
 k-point    12 :   0.3846 0.0769 0.0000  plane waves:    3823
 k-point    13 :   0.4615 0.0769 0.0000  plane waves:    3803
 k-point    14 :   0.1538 0.1538 0.0000  plane waves:    3817
 k-point    15 :   0.2308 0.1538 0.0000  plane waves:    3829
 k-point    16 :   0.3077 0.1538 0.0000  plane waves:    3814
 k-point    17 :   0.3846 0.1538 0.0000  plane waves:    3820
 k-point    18 :   0.4615 0.1538 0.0000  plane waves:    3806
 k-point    19 :   0.2308 0.2308 0.0000  plane waves:    3819
 k-point    20 :   0.3077 0.2308 0.0000  plane waves:    3819
 k-point    21 :   0.3846 0.2308 0.0000  plane waves:    3815
 k-point    22 :   0.4615 0.2308 0.0000  plane waves:    3818
 k-point    23 :   0.3077 0.3077 0.0000  plane waves:    3810
 k-point    24 :   0.3846 0.3077 0.0000  plane waves:    3801
 k-point    25 :   0.4615 0.3077 0.0000  plane waves:    3825
 k-point    26 :   0.3846 0.3846 0.0000  plane waves:    3832
 k-point    27 :   0.4615 0.3846 0.0000  plane waves:    3853
 k-point    28 :   0.4615 0.4615 0.0000  plane waves:    3852
 k-point    29 :   0.0000 0.0000 0.2500  plane waves:    3828
 k-point    30 :   0.0769 0.0000 0.2500  plane waves:    3827
 k-point    31 :   0.1538 0.0000 0.2500  plane waves:    3837
 k-point    32 :   0.2308 0.0000 0.2500  plane waves:    3832
 k-point    33 :   0.3077 0.0000 0.2500  plane waves:    3827
 k-point    34 :   0.3846 0.0000 0.2500  plane waves:    3820
 k-point    35 :   0.4615 0.0000 0.2500  plane waves:    3809
 k-point    36 :   0.0769 0.0769 0.2500  plane waves:    3829
 k-point    37 :   0.1538 0.0769 0.2500  plane waves:    3832
 k-point    38 :   0.2308 0.0769 0.2500  plane waves:    3830
 k-point    39 :   0.3077 0.0769 0.2500  plane waves:    3823
 k-point    40 :   0.3846 0.0769 0.2500  plane waves:    3823
 k-point    41 :   0.4615 0.0769 0.2500  plane waves:    3817
 k-point    42 :   0.1538 0.1538 0.2500  plane waves:    3830
 k-point    43 :   0.2308 0.1538 0.2500  plane waves:    3830
 k-point    44 :   0.3077 0.1538 0.2500  plane waves:    3819
 k-point    45 :   0.3846 0.1538 0.2500  plane waves:    3817
 k-point    46 :   0.4615 0.1538 0.2500  plane waves:    3821
 k-point    47 :   0.2308 0.2308 0.2500  plane waves:    3806
 k-point    48 :   0.3077 0.2308 0.2500  plane waves:    3809
 k-point    49 :   0.3846 0.2308 0.2500  plane waves:    3817
 k-point    50 :   0.4615 0.2308 0.2500  plane waves:    3818
 k-point    51 :   0.3077 0.3077 0.2500  plane waves:    3819
 k-point    52 :   0.3846 0.3077 0.2500  plane waves:    3820
 k-point    53 :   0.4615 0.3077 0.2500  plane waves:    3834
 k-point    54 :   0.3846 0.3846 0.2500  plane waves:    3832
 k-point    55 :   0.4615 0.3846 0.2500  plane waves:    3838
 k-point    56 :   0.4615 0.4615 0.2500  plane waves:    3832
 k-point    57 :   0.0000 0.0000 0.5000  plane waves:    3816
 k-point    58 :   0.0769 0.0000 0.5000  plane waves:    3832
 k-point    59 :   0.1538 0.0000 0.5000  plane waves:    3824
 k-point    60 :   0.2308 0.0000 0.5000  plane waves:    3824
 k-point    61 :   0.3077 0.0000 0.5000  plane waves:    3834
 k-point    62 :   0.3846 0.0000 0.5000  plane waves:    3822
 k-point    63 :   0.4615 0.0000 0.5000  plane waves:    3812
 k-point    64 :   0.0769 0.0769 0.5000  plane waves:    3824
 k-point    65 :   0.1538 0.0769 0.5000  plane waves:    3848
 k-point    66 :   0.2308 0.0769 0.5000  plane waves:    3830
 k-point    67 :   0.3077 0.0769 0.5000  plane waves:    3824
 k-point    68 :   0.3846 0.0769 0.5000  plane waves:    3816
 k-point    69 :   0.4615 0.0769 0.5000  plane waves:    3810
 k-point    70 :   0.1538 0.1538 0.5000  plane waves:    3832
 k-point    71 :   0.2308 0.1538 0.5000  plane waves:    3820
 k-point    72 :   0.3077 0.1538 0.5000  plane waves:    3808
 k-point    73 :   0.3846 0.1538 0.5000  plane waves:    3830
 k-point    74 :   0.4615 0.1538 0.5000  plane waves:    3814
 k-point    75 :   0.2308 0.2308 0.5000  plane waves:    3824
 k-point    76 :   0.3077 0.2308 0.5000  plane waves:    3820
 k-point    77 :   0.3846 0.2308 0.5000  plane waves:    3818
 k-point    78 :   0.4615 0.2308 0.5000  plane waves:    3820
 k-point    79 :   0.3077 0.3077 0.5000  plane waves:    3812
 k-point    80 :   0.3846 0.3077 0.5000  plane waves:    3822
 k-point    81 :   0.4615 0.3077 0.5000  plane waves:    3826
 k-point    82 :   0.3846 0.3846 0.5000  plane waves:    3836
 k-point    83 :   0.4615 0.3846 0.5000  plane waves:    3834
 k-point    84 :   0.4615 0.4615 0.5000  plane waves:    3852

 maximum and minimum number of plane-waves per node :      3865     3801

 maximum number of plane-waves:      3865
 maximum index in each direction: 
   IXMAX=    6   IYMAX=    6   IZMAX=   20
   IXMIN=   -7   IYMIN=   -7   IZMIN=  -20


 serial   3D FFT for wavefunctions
 parallel 3D FFT for charge:
    minimum data exchange during FFTs selected (reduces bandwidth)


 total amount of memory used by VASP MPI-rank0   264608. kBytes
=======================================================================

   base      :      30000. kBytes
   nonl-proj :      94414. kBytes
   fftplans  :        888. kBytes
   grid      :       6813. kBytes
   one-center:        373. kBytes
   wavefun   :     132120. kBytes
 
     INWAV:  cpu time      0.0000: real time      0.0000
 Broyden mixing: mesh for mixing (old mesh)
   NGX = 13   NGY = 13   NGZ = 41
  (NGX  = 56   NGY  = 56   NGZ  =168)
  gives a total of   6929 points

 initial charge density was supplied:
 charge density of overlapping atoms calculated
 number of electron     156.0000000 magnetization      23.9060000
 charge density for first step will be calculated from the start-wavefunctions


--------------------------------------------------------------------------------------------------------


 Maximum index for augmentation-charges         1093 (set IRDMAX)


--------------------------------------------------------------------------------------------------------


 First call to EWALD:  gamma=   0.340
 Maximum number of real-space cells 4x 4x 2
 Maximum number of reciprocal cells 2x 2x 5

    FEWALD:  cpu time      0.0015: real time      0.0015


--------------------------------------- Ionic step        1  -------------------------------------------




--------------------------------------- Iteration      1(   1)  ---------------------------------------


    POTLOK:  cpu time      0.0338: real time      0.0348
    SETDIJ:  cpu time      0.0146: real time      0.0151
    TRIAL :  cpu time      5.6514: real time      5.6938
    CORREC:  cpu time      0.0037: real time      0.0037
    --------------------------------------------
      LOOP:  cpu time      5.8214: real time      5.8683

 eigenvalue-minimisations  : 43136
 total energy-change (2. order) : 0.1761488E+04  (-0.9127916E+04)
 number of electron     156.0000000 magnetization      23.9060000
 augmentation part      156.0000000 magnetization      23.9060000

 Free energy of the ion-electron system (eV)
  ---------------------------------------------------
  alpha Z        PSCENC =      1198.52203918
  Ewald energy   TEWEN  =    -18668.36092130
  -Hartree energ DENC   =     -5704.97082068
  -exchange      EXHF   =         0.00000000
  -V(xc)+E(xc)   XCENC  =       661.02208415
  PAW double counting   =     20094.53025898   -20818.51057690
  entropy T*S    EENTRO =         0.00264398
  eigenvalues    EBANDS =       695.14997081
  atomic energy  EATOM  =     24304.10294433
  ---------------------------------------------------
  free energy    TOTEN  =      1761.48762255 eV

  energy without entropy =     1761.48497857  energy(sigma->0) =     1761.48674122


--------------------------------------------------------------------------------------------------------




--------------------------------------- Iteration      1(   2)  ---------------------------------------


    TRIAL :  cpu time      5.5681: real time      5.6063
    CORREC:  cpu time      0.0025: real time      0.0025
    --------------------------------------------
      LOOP:  cpu time      5.5884: real time      5.6317

 eigenvalue-minimisations  : 43040
 total energy-change (2. order) :-0.1755058E+04  (-0.1663101E+04)
 number of electron     156.0000000 magnetization      23.9060000
 augmentation part      156.0000000 magnetization      23.9060000

 Free energy of the ion-electron system (eV)
  ---------------------------------------------------
  alpha Z        PSCENC =      1198.52203918
  Ewald energy   TEWEN  =    -18668.36092130
  -Hartree energ DENC   =     -5704.97082068
  -exchange      EXHF   =         0.00000000
  -V(xc)+E(xc)   XCENC  =       661.02208415
  PAW double counting   =     20094.53025898   -20818.51057690
  entropy T*S    EENTRO =        -0.00703160
  eigenvalues    EBANDS =     -1059.89790077
  atomic energy  EATOM  =     24304.10294433
  ---------------------------------------------------
  free energy    TOTEN  =         6.43007540 eV

  energy without entropy =        6.43710700  energy(sigma->0) =        6.43241926


--------------------------------------------------------------------------------------------------------




--------------------------------------- Iteration      1(   3)  ---------------------------------------


    TRIAL :  cpu time      6.6774: real time      6.7234
    CORREC:  cpu time      0.0025: real time      0.0025
    --------------------------------------------
      LOOP:  cpu time      6.7012: real time      6.7475

 eigenvalue-minimisations  : 50656
 total energy-change (2. order) :-0.1085616E+03  (-0.1070600E+03)
 number of electron     156.0000000 magnetization      23.9060000
 augmentation part      156.0000000 magnetization      23.9060000

 Free energy of the ion-electron system (eV)
  ---------------------------------------------------
  alpha Z        PSCENC =      1198.52203918
  Ewald energy   TEWEN  =    -18668.36092130
  -Hartree energ DENC   =     -5704.97082068
  -exchange      EXHF   =         0.00000000
  -V(xc)+E(xc)   XCENC  =       661.02208415
  PAW double counting   =     20094.53025898   -20818.51057690
  entropy T*S    EENTRO =        -0.04020213
  eigenvalues    EBANDS =     -1168.42632031
  atomic energy  EATOM  =     24304.10294433
  ---------------------------------------------------
  free energy    TOTEN  =      -102.13151468 eV

  energy without entropy =     -102.09131255  energy(sigma->0) =     -102.11811397


--------------------------------------------------------------------------------------------------------




--------------------------------------- Iteration      1(   4)  ---------------------------------------


    TRIAL :  cpu time      5.8538: real time      5.8930
    CORREC:  cpu time      0.0025: real time      0.0025
    --------------------------------------------
      LOOP:  cpu time      5.8725: real time      5.9173

 eigenvalue-minimisations  : 45760
 total energy-change (2. order) :-0.1488329E+01  (-0.1488017E+01)
 number of electron     156.0000000 magnetization      23.9060000
 augmentation part      156.0000000 magnetization      23.9060000

 Free energy of the ion-electron system (eV)
  ---------------------------------------------------
  alpha Z        PSCENC =      1198.52203918
  Ewald energy   TEWEN  =    -18668.36092130
  -Hartree energ DENC   =     -5704.97082068
  -exchange      EXHF   =         0.00000000
  -V(xc)+E(xc)   XCENC  =       661.02208415
  PAW double counting   =     20094.53025898   -20818.51057690
  entropy T*S    EENTRO =        -0.04030894
  eigenvalues    EBANDS =     -1169.91454237
  atomic energy  EATOM  =     24304.10294433
  ---------------------------------------------------
  free energy    TOTEN  =      -103.61984355 eV

  energy without entropy =     -103.57953461  energy(sigma->0) =     -103.60640724


--------------------------------------------------------------------------------------------------------




--------------------------------------- Iteration      1(   5)  ---------------------------------------


    TRIAL :  cpu time      7.0742: real time      7.1220
    CORREC:  cpu time      0.0026: real time      0.0026
    CHARGE:  cpu time      0.1733: real time      0.1746
    --------------------------------------------
      LOOP:  cpu time      7.2665: real time      7.3212

 eigenvalue-minimisations  : 53056
 total energy-change (2. order) :-0.2624837E-01  (-0.2624757E-01)
 number of electron     155.9999674 magnetization      17.9727985
 augmentation part       79.4017265 magnetization      13.0091425

 Free energy of the ion-electron system (eV)
  ---------------------------------------------------
  alpha Z        PSCENC =      1198.52203918
  Ewald energy   TEWEN  =    -18668.36092130
  -Hartree energ DENC   =     -5704.97082068
  -exchange      EXHF   =         0.00000000
  -V(xc)+E(xc)   XCENC  =       661.02208415
  PAW double counting   =     20094.53025898   -20818.51057690
  entropy T*S    EENTRO =        -0.04030995
  eigenvalues    EBANDS =     -1169.94078974
  atomic energy  EATOM  =     24304.10294433
  ---------------------------------------------------
  free energy    TOTEN  =      -103.64609192 eV

  energy without entropy =     -103.60578197  energy(sigma->0) =     -103.63265527


--------------------------------------------------------------------------------------------------------




--------------------------------------- Iteration      1(   6)  ---------------------------------------


    POTLOK:  cpu time      0.0222: real time      0.0224
    SETDIJ:  cpu time      0.0084: real time      0.0084
    TRIAL :  cpu time      2.6318: real time      2.6585
    CORREC:  cpu time      1.1597: real time      1.1713
    CHARGE:  cpu time      0.1634: real time      0.1643
    --------------------------------------------
      LOOP:  cpu time      4.0034: real time      4.0473

 eigenvalue-minimisations  :     0
 total energy-change (2. order) : 0.4309785E+02  (-0.2574155E+02)
 number of electron     155.9999659 magnetization      19.2386875
 augmentation part       83.3952758 magnetization      14.3495635

 Free energy of the ion-electron system (eV)
  ---------------------------------------------------
  alpha Z        PSCENC =      1198.52203918
  Ewald energy   TEWEN  =    -18668.36092130
  -Hartree energ DENC   =     -4670.55022594
  -exchange      EXHF   =         0.00000000
  -V(xc)+E(xc)   XCENC  =       616.12485635
  PAW double counting   =     22077.86213158   -22752.82230449
  entropy T*S    EENTRO =        -0.01353086
  eigenvalues    EBANDS =     -2165.38644785
  atomic energy  EATOM  =     24304.10294433
  ---------------------------------------------------
  free energy    TOTEN  =       -60.54823809 eV

  energy without entropy =      -60.53470723  energy(sigma->0) =      -60.54372780


--------------------------------------------------------------------------------------------------------




--------------------------------------- Iteration      1(   7)  ---------------------------------------


    POTLOK:  cpu time      0.0216: real time      0.0219
    SETDIJ:  cpu time      0.0078: real time      0.0078
    TRIAL :  cpu time      2.6298: real time      2.6570
    CORREC:  cpu time      1.0889: real time      1.1006
    CHARGE:  cpu time      0.1612: real time      0.1620
    --------------------------------------------
      LOOP:  cpu time      3.9264: real time      3.9721

 eigenvalue-minimisations  :     0
 total energy-change (2. order) :-0.2609514E+02  (-0.3545269E+01)
 number of electron     155.9999658 magnetization      19.9816808
 augmentation part       84.2855944 magnetization      15.0427211

 Free energy of the ion-electron system (eV)
  ---------------------------------------------------
  alpha Z        PSCENC =      1198.52203918
  Ewald energy   TEWEN  =    -18668.36092130
  -Hartree energ DENC   =     -5218.06104210
  -exchange      EXHF   =         0.00000000
  -V(xc)+E(xc)   XCENC  =       639.09388937
  PAW double counting   =     22672.49800475   -23454.18301995
  entropy T*S    EENTRO =        -0.01486296
  eigenvalues    EBANDS =     -1560.24174467
  atomic energy  EATOM  =     24304.10294433
  ---------------------------------------------------
  free energy    TOTEN  =       -86.64338126 eV

  energy without entropy =      -86.62851830  energy(sigma->0) =      -86.63842694


--------------------------------------------------------------------------------------------------------




--------------------------------------- Iteration      1(   8)  ---------------------------------------


    POTLOK:  cpu time      0.0214: real time      0.0216
    SETDIJ:  cpu time      0.0084: real time      0.0084
    TRIAL :  cpu time      2.6707: real time      2.6970
    CORREC:  cpu time      1.0806: real time      1.0921
    CHARGE:  cpu time      0.1589: real time      0.1597
    --------------------------------------------
      LOOP:  cpu time      3.9576: real time      4.0015

 eigenvalue-minimisations  :     0
 total energy-change (2. order) :-0.3539774E+01  (-0.6550639E+00)
 number of electron     155.9999658 magnetization      20.1574933
 augmentation part       84.4487996 magnetization      15.1993860

 Free energy of the ion-electron system (eV)
  ---------------------------------------------------
  alpha Z        PSCENC =      1198.52203918
  Ewald energy   TEWEN  =    -18668.36092130
  -Hartree energ DENC   =     -5308.51202710
  -exchange      EXHF   =         0.00000000
  -V(xc)+E(xc)   XCENC  =       643.67893579
  PAW double counting   =     22807.41958872   -23587.42399410
  entropy T*S    EENTRO =        -0.01421699
  eigenvalues    EBANDS =     -1479.59485800
  atomic energy  EATOM  =     24304.10294433
  ---------------------------------------------------
  free energy    TOTEN  =       -90.18315543 eV

  energy without entropy =      -90.16893844  energy(sigma->0) =      -90.17841643


--------------------------------------------------------------------------------------------------------




--------------------------------------- Iteration      1(   9)  ---------------------------------------


    POTLOK:  cpu time      0.0216: real time      0.0218
    SETDIJ:  cpu time      0.0082: real time      0.0082
    TRIAL :  cpu time      2.7024: real time      2.7292
    CORREC:  cpu time      1.0782: real time      1.0920
    CHARGE:  cpu time      0.1585: real time      0.1594
    --------------------------------------------
      LOOP:  cpu time      3.9850: real time      4.0328

 eigenvalue-minimisations  :     0
 total energy-change (2. order) :-0.8049842E+00  (-0.1598445E+00)
 number of electron     155.9999658 magnetization      20.2218610
 augmentation part       84.4702191 magnetization      15.2532452

 Free energy of the ion-electron system (eV)
  ---------------------------------------------------
  alpha Z        PSCENC =      1198.52203918
  Ewald energy   TEWEN  =    -18668.36092130
  -Hartree energ DENC   =     -5324.61823682
  -exchange      EXHF   =         0.00000000
  -V(xc)+E(xc)   XCENC  =       644.54674017
  PAW double counting   =     22843.66494548   -23622.60177831
  entropy T*S    EENTRO =        -0.01382033
  eigenvalues    EBANDS =     -1466.22965535
  atomic energy  EATOM  =     24304.10294433
  ---------------------------------------------------
  free energy    TOTEN  =       -90.98813959 eV

  energy without entropy =      -90.97431926  energy(sigma->0) =      -90.98353281


--------------------------------------------------------------------------------------------------------




--------------------------------------- Iteration      1(  10)  ---------------------------------------


    POTLOK:  cpu time      0.0214: real time      0.0216
    SETDIJ:  cpu time      0.0077: real time      0.0077
    TRIAL :  cpu time      2.6164: real time      2.6435
    CORREC:  cpu time      1.0815: real time      1.0927
    CHARGE:  cpu time      0.1584: real time      0.1592
    --------------------------------------------
      LOOP:  cpu time      3.9020: real time      3.9474

 eigenvalue-minimisations  :     0
 total energy-change (2. order) :-0.1479020E+00  (-0.5558214E+00)
 number of electron     155.9999659 magnetization      20.5981714
 augmentation part       84.5450338 magnetization      15.5658536

 Free energy of the ion-electron system (eV)
  ---------------------------------------------------
  alpha Z        PSCENC =      1198.52203918
  Ewald energy   TEWEN  =    -18668.36092130
  -Hartree energ DENC   =     -5327.20976755
  -exchange      EXHF   =         0.00000000
  -V(xc)+E(xc)   XCENC  =       644.68551084
  PAW double counting   =     22843.32339147   -23620.77190395
  entropy T*S    EENTRO =        -0.00843792
  eigenvalues    EBANDS =     -1465.41351430
  atomic energy  EATOM  =     24304.10294433
  ---------------------------------------------------
  free energy    TOTEN  =       -91.13604160 eV

  energy without entropy =      -91.12760368  energy(sigma->0) =      -91.13322896


--------------------------------------------------------------------------------------------------------




--------------------------------------- Iteration      1(  11)  ---------------------------------------


    POTLOK:  cpu time      0.0216: real time      0.0218
    SETDIJ:  cpu time      0.0082: real time      0.0082
    TRIAL :  cpu time      2.6276: real time      2.6541
    CORREC:  cpu time      1.1489: real time      1.1611
    CHARGE:  cpu time      0.1582: real time      0.1590
    --------------------------------------------
      LOOP:  cpu time      3.9819: real time      4.0268

 eigenvalue-minimisations  :     0
 total energy-change (2. order) :-0.5673064E+00  (-0.2484923E+00)
 number of electron     155.9999659 magnetization      20.7525973
 augmentation part       84.5820635 magnetization      15.6958142

 Free energy of the ion-electron system (eV)
  ---------------------------------------------------
  alpha Z        PSCENC =      1198.52203918
  Ewald energy   TEWEN  =    -18668.36092130
  -Hartree energ DENC   =     -5338.36527631
  -exchange      EXHF   =         0.00000000
  -V(xc)+E(xc)   XCENC  =       645.27692830
  PAW double counting   =     22830.71615916   -23598.12861543
  entropy T*S    EENTRO =        -0.00133493
  eigenvalues    EBANDS =     -1465.45816796
  atomic energy  EATOM  =     24304.10294433
  ---------------------------------------------------
  free energy    TOTEN  =       -91.70334795 eV

  energy without entropy =      -91.70201303  energy(sigma->0) =      -91.70290298


--------------------------------------------------------------------------------------------------------




--------------------------------------- Iteration      1(  12)  ---------------------------------------


    POTLOK:  cpu time      0.0215: real time      0.0217
    SETDIJ:  cpu time      0.0082: real time      0.0083
    TRIAL :  cpu time      2.6394: real time      2.6654
    CORREC:  cpu time      1.0818: real time      1.0934
    CHARGE:  cpu time      0.1564: real time      0.1572
    --------------------------------------------
      LOOP:  cpu time      3.9246: real time      3.9682

 eigenvalue-minimisations  :     0
 total energy-change (2. order) :-0.3789686E+00  (-0.2190678E+00)
 number of electron     155.9999659 magnetization      20.7691143
 augmentation part       84.5941273 magnetization      15.7097599

 Free energy of the ion-electron system (eV)
  ---------------------------------------------------
  alpha Z        PSCENC =      1198.52203918
  Ewald energy   TEWEN  =    -18668.36092130
  -Hartree energ DENC   =     -5343.56444602
  -exchange      EXHF   =         0.00000000
  -V(xc)+E(xc)   XCENC  =       645.56035807
  PAW double counting   =     22831.86781294   -23595.54379459
  entropy T*S    EENTRO =        -0.00090701
  eigenvalues    EBANDS =     -1464.66497426
  atomic energy  EATOM  =     24304.10294433
  ---------------------------------------------------
  free energy    TOTEN  =       -92.08231657 eV

  energy without entropy =      -92.08140956  energy(sigma->0) =      -92.08201424


--------------------------------------------------------------------------------------------------------




--------------------------------------- Iteration      1(  13)  ---------------------------------------


    POTLOK:  cpu time      0.0213: real time      0.0215
    SETDIJ:  cpu time      0.0077: real time      0.0077
    TRIAL :  cpu time      2.6460: real time      2.6726
    CORREC:  cpu time      1.0849: real time      1.0968
    CHARGE:  cpu time      0.1545: real time      0.1553
    --------------------------------------------
      LOOP:  cpu time      3.9354: real time      3.9765

 eigenvalue-minimisations  :     0
 total energy-change (2. order) :-0.2365815E+00  (-0.6530098E-01)
 number of electron     155.9999659 magnetization      20.8279423
 augmentation part       84.6399226 magnetization      15.7611404

 Free energy of the ion-electron system (eV)
  ---------------------------------------------------
  alpha Z        PSCENC =      1198.52203918
  Ewald energy   TEWEN  =    -18668.36092130
  -Hartree energ DENC   =     -5345.19283420
  -exchange      EXHF   =         0.00000000
  -V(xc)+E(xc)   XCENC  =       645.63955451
  PAW double counting   =     22832.41744619   -23596.41778685
  entropy T*S    EENTRO =        -0.00216856
  eigenvalues    EBANDS =     -1463.02843290
  atomic energy  EATOM  =     24304.10294433
  ---------------------------------------------------
  free energy    TOTEN  =       -92.31889804 eV

  energy without entropy =      -92.31672948  energy(sigma->0) =      -92.31817519


--------------------------------------------------------------------------------------------------------




--------------------------------------- Iteration      1(  14)  ---------------------------------------


    POTLOK:  cpu time      0.0216: real time      0.0218
    SETDIJ:  cpu time      0.0082: real time      0.0082
    TRIAL :  cpu time      2.7096: real time      2.7364
    CORREC:  cpu time      1.0823: real time      1.0938
    CHARGE:  cpu time      0.1549: real time      0.1557
    --------------------------------------------
      LOOP:  cpu time      3.9943: real time      4.0385

 eigenvalue-minimisations  :     0
 total energy-change (2. order) :-0.6475551E-01  (-0.4559294E-01)
 number of electron     155.9999659 magnetization      20.9033876
 augmentation part       84.6858548 magnetization      15.8260205

 Free energy of the ion-electron system (eV)
  ---------------------------------------------------
  alpha Z        PSCENC =      1198.52203918
  Ewald energy   TEWEN  =    -18668.36092130
  -Hartree energ DENC   =     -5351.95683877
  -exchange      EXHF   =         0.00000000
  -V(xc)+E(xc)   XCENC  =       645.93842063
  PAW double counting   =     22834.37530366   -23599.55949097
  entropy T*S    EENTRO =        -0.00356649
  eigenvalues    EBANDS =     -1455.44294175
  atomic energy  EATOM  =     24304.10294433
  ---------------------------------------------------
  free energy    TOTEN  =       -92.38365356 eV

  energy without entropy =      -92.38008706  energy(sigma->0) =      -92.38246473


--------------------------------------------------------------------------------------------------------




--------------------------------------- Iteration      1(  15)  ---------------------------------------


    POTLOK:  cpu time      0.0216: real time      0.0217
    SETDIJ:  cpu time      0.0079: real time      0.0080
    TRIAL :  cpu time      2.6559: real time      2.6829
    CORREC:  cpu time      1.1320: real time      1.1436
    CHARGE:  cpu time      0.1544: real time      0.1552
    --------------------------------------------
      LOOP:  cpu time      3.9897: real time      4.0337

 eigenvalue-minimisations  :     0
 total energy-change (2. order) :-0.4470954E-01  (-0.8593098E-01)
 number of electron     155.9999659 magnetization      21.1041971
 augmentation part       84.7744764 magnetization      15.9971413

 Free energy of the ion-electron system (eV)
  ---------------------------------------------------
  alpha Z        PSCENC =      1198.52203918
  Ewald energy   TEWEN  =    -18668.36092130
  -Hartree energ DENC   =     -5358.43328616
  -exchange      EXHF   =         0.00000000
  -V(xc)+E(xc)   XCENC  =       646.23873539
  PAW double counting   =     22834.68747618   -23600.92865760
  entropy T*S    EENTRO =        -0.00433196
  eigenvalues    EBANDS =     -1448.25312663
  atomic energy  EATOM  =     24304.10294433
  ---------------------------------------------------
  free energy    TOTEN  =       -92.42836310 eV

  energy without entropy =      -92.42403114  energy(sigma->0) =      -92.42691911


--------------------------------------------------------------------------------------------------------




--------------------------------------- Iteration      1(  16)  ---------------------------------------


    POTLOK:  cpu time      0.0217: real time      0.0219
    SETDIJ:  cpu time      0.0080: real time      0.0080
    TRIAL :  cpu time      2.6251: real time      2.6514
    CORREC:  cpu time      1.1859: real time      1.1981
    CHARGE:  cpu time      0.1577: real time      0.1585
    --------------------------------------------
      LOOP:  cpu time      4.0152: real time      4.0602

 eigenvalue-minimisations  :     0
 total energy-change (2. order) :-0.8549805E-01  (-0.1679553E-01)
 number of electron     155.9999659 magnetization      21.1636300
 augmentation part       84.7804995 magnetization      16.0468066

 Free energy of the ion-electron system (eV)
  ---------------------------------------------------
  alpha Z        PSCENC =      1198.52203918
  Ewald energy   TEWEN  =    -18668.36092130
  -Hartree energ DENC   =     -5369.69732147
  -exchange      EXHF   =         0.00000000
  -V(xc)+E(xc)   XCENC  =       646.81476118
  PAW double counting   =     22829.12605384   -23596.91961454
  entropy T*S    EENTRO =        -0.00416291
  eigenvalues    EBANDS =     -1436.09747042
  atomic energy  EATOM  =     24304.10294433
  ---------------------------------------------------
  free energy    TOTEN  =       -92.51386115 eV

  energy without entropy =      -92.50969824  energy(sigma->0) =      -92.51247351


--------------------------------------------------------------------------------------------------------




--------------------------------------- Iteration      1(  17)  ---------------------------------------


    POTLOK:  cpu time      0.0212: real time      0.0214
    SETDIJ:  cpu time      0.0085: real time      0.0085
    TRIAL :  cpu time      2.6584: real time      2.6862
    CORREC:  cpu time      1.0978: real time      1.1096
    CHARGE:  cpu time      0.1534: real time      0.1542
    --------------------------------------------
      LOOP:  cpu time      3.9561: real time      4.0030

 eigenvalue-minimisations  :     0
 total energy-change (2. order) :-0.1617119E-01  (-0.5356385E-01)
 number of electron     155.9999660 magnetization      21.4615480
 augmentation part       84.7526408 magnetization      16.2953085

[...]
     61      10.1885      1.00000
     62      10.1902      1.00000
     63      10.6303      1.00964
     64      10.6548      1.01366
     65      10.7109      1.02569
     66      10.7113      1.02594
     67      10.7451      1.03295
     68      10.7995      1.03235
     69      10.8177      1.02565
     70      11.0628      0.31697
     71      11.0649      0.31263
     72      11.0982      0.18971
     73      11.1009      0.18517
     74      11.2938     -0.03259
     75      11.2958     -0.03241
     76      12.2076     -0.00000
     77      12.2088     -0.00000
     78      12.3837     -0.00000
     79      12.3838     -0.00000
     80      12.4278     -0.00000
     81      12.4280     -0.00000
     82      12.6434     -0.00000
     83      12.6440     -0.00000
     84      12.9209     -0.00000
     85      12.9669     -0.00000
     86      13.1413     -0.00000
     87      13.1544     -0.00000
     88      13.2029     -0.00000
     89      13.2201     -0.00000
     90      13.2820     -0.00000
     91      13.2945     -0.00000
     92      13.8035     -0.00000
     93      13.8039     -0.00000
     94      14.2932     -0.00000
     95      14.2950     -0.00000
     96      14.3005     -0.00000
     97      14.3006     -0.00000
     98      14.8730     -0.00000
     99      14.8736     -0.00000
    100      17.5887      0.00000
    101      19.6759      0.00000
    102      19.7425      0.00000
    103      19.7911      0.00000
    104      20.5761      0.00000
    105      20.5769      0.00000
    106      21.3078      0.00000
    107      21.3096      0.00000
    108      21.8521      0.00000
    109      21.8548      0.00000
    110      22.3717      0.00000
    111      22.3728      0.00000
    112      26.8600      0.00000
    113      26.8606      0.00000
    114      27.2770      0.00000
    115      27.2809      0.00000
    116      27.6855      0.00000
    117      27.6877      0.00000
    118      28.6187      0.00000
    119      28.6215      0.00000
    120      29.0464      0.00000
    121      29.0488      0.00000
    122      29.0976      0.00000
    123      29.6101      0.00000
    124      30.9437      0.00000
    125      30.9440      0.00000
    126      31.3430      0.00000
    127      31.3434      0.00000
    128      32.2057      0.00000


--------------------------------------------------------------------------------------------------------


 soft charge-density along one line, spin component           1
         0         1         2         3         4         5         6         7         8         9
 total charge-density along one line
 
 soft charge-density along one line, spin component           2
         0         1         2         3         4         5         6         7         8         9
 total charge-density along one line
 
 pseudopotential strength for first ion, spin component:           1
-44.026  -0.000   0.000   7.226   0.000  -0.000  -0.000  -0.000
 -0.000 -44.027   0.000   0.000   7.226  -0.000   0.000   0.000
  0.000   0.000 -43.907  -0.000  -0.000   7.178   0.000   0.000
  7.226   0.000  -0.000   5.723   0.000  -0.000   0.000   0.000
  0.000   7.226  -0.000   0.000   5.723  -0.000  -0.000  -0.000
 -0.000  -0.000   7.178  -0.000  -0.000   5.732  -0.000  -0.000
 -0.000   0.000   0.000   0.000  -0.000  -0.000  -1.265   0.000
 -0.000   0.000   0.000   0.000  -0.000  -0.000   0.000  -1.354
 -0.000  -0.000   0.000   0.000   0.000   0.000  -0.000  -0.000
  0.000   0.000  -0.000  -0.000  -0.000   0.000  -0.000   0.000
 -0.000  -0.000  -0.000   0.000   0.000  -0.000   0.000   0.000
 -0.000   0.000   0.000  -0.000  -0.000  -0.000  -1.792   0.000
 -0.000   0.000   0.000   0.000  -0.000  -0.000   0.000  -1.879
 -0.000  -0.000   0.000   0.000   0.000  -0.000  -0.000  -0.000
  0.000   0.000  -0.000  -0.000  -0.000   0.000  -0.000   0.000
 -0.000  -0.000   0.000   0.000   0.000   0.000   0.000   0.000
 -0.000   0.000  -0.000  -0.000  -0.000   0.000  -0.000   0.000
 -0.000   0.000  -0.000  -0.000  -0.000   0.000  -0.000   0.000
 pseudopotential strength for first ion, spin component:           2
-41.873  -0.000   0.000   6.317   0.000  -0.000  -0.000  -0.000
 -0.000 -41.873   0.000   0.000   6.317  -0.000   0.000   0.000
  0.000   0.000 -41.773  -0.000  -0.000   6.276   0.000   0.000
  6.317   0.000  -0.000   5.973   0.000  -0.000   0.000   0.000
  0.000   6.317  -0.000   0.000   5.973  -0.000  -0.000  -0.000
 -0.000  -0.000   6.276  -0.000  -0.000   5.982  -0.000  -0.000
 -0.000   0.000   0.000   0.000  -0.000  -0.000   0.446   0.000
 -0.000   0.000   0.000   0.000  -0.000  -0.000   0.000   0.377
 -0.000  -0.000   0.000   0.000   0.000  -0.000  -0.000  -0.000
  0.000  -0.000  -0.000  -0.000   0.000   0.000  -0.000   0.000
 -0.000  -0.000  -0.000   0.000  -0.000   0.000   0.000   0.000
 -0.000   0.000   0.000   0.000  -0.000  -0.000  -0.109   0.000
 -0.000   0.000   0.000   0.000  -0.000  -0.000   0.000  -0.176
 -0.000  -0.000  -0.000   0.000   0.000  -0.000  -0.000  -0.000
  0.000   0.000  -0.000  -0.000   0.000   0.000  -0.000   0.000
 -0.000  -0.000  -0.000   0.000  -0.000   0.000   0.000   0.000
 -0.000   0.000   0.000  -0.000   0.000   0.000  -0.000   0.000
 -0.000   0.000   0.000  -0.000   0.000  -0.000  -0.000   0.000
 total augmentation occupancy for first ion, spin component:           1
  1.992   0.000   0.000  -0.024  -0.000   0.000   0.000  -0.000  -0.000   0.000   0.000   0.000   0.000  -0.000   0.000   0.000
  0.000   1.992   0.000   0.000  -0.024  -0.000   0.000   0.000  -0.000   0.000   0.000  -0.000  -0.000   0.000  -0.000  -0.000
  0.000   0.000   1.992   0.000  -0.000  -0.024  -0.000  -0.000   0.000  -0.000   0.000  -0.000  -0.000   0.000   0.000   0.000
 -0.024   0.000   0.000   0.211  -0.000  -0.000   0.000  -0.000   0.000  -0.000  -0.000   0.000   0.000  -0.000   0.000  -0.000
 -0.000  -0.024  -0.000  -0.000   0.211   0.000  -0.000   0.000  -0.000  -0.000   0.000   0.000  -0.000   0.000   0.000  -0.000
  0.000  -0.000  -0.024  -0.000   0.000   0.188   0.000   0.000  -0.000  -0.000   0.000   0.000   0.000   0.000   0.000  -0.000
  0.000   0.000  -0.000   0.000  -0.000   0.000   3.098  -0.000   0.000   0.000   0.000  -1.931  -0.000   0.000  -0.000  -0.000
 -0.000   0.000  -0.000  -0.000   0.000   0.000  -0.000   3.223  -0.000  -0.000   0.000  -0.000  -2.430  -0.000  -0.000  -0.000
 -0.000  -0.000   0.000   0.000  -0.000  -0.000   0.000  -0.000   3.555   0.000   0.169  -0.000   0.000  -2.260   0.000  -0.085
  0.000   0.000  -0.000  -0.000  -0.000  -0.000   0.000  -0.000   0.000   3.088  -0.000  -0.000   0.000  -0.000  -1.924   0.000
  0.000   0.000   0.000  -0.000   0.000   0.000   0.000   0.000   0.169  -0.000   3.354   0.000  -0.000  -0.085   0.000  -2.158
  0.000  -0.000  -0.000   0.000   0.000   0.000  -1.931  -0.000  -0.000  -0.000   0.000   2.183   0.000  -0.000   0.000   0.000
  0.000  -0.000  -0.000   0.000  -0.000   0.000  -0.000  -2.430   0.000   0.000  -0.000   0.000   2.919   0.000  -0.000   0.000
 -0.000   0.000   0.000  -0.000   0.000   0.000   0.000  -0.000  -2.260  -0.000  -0.085  -0.000   0.000   2.248   0.000   0.013
  0.000  -0.000   0.000   0.000   0.000   0.000  -0.000  -0.000   0.000  -1.924   0.000   0.000  -0.000   0.000   2.179   0.000
  0.000  -0.000   0.000  -0.000  -0.000  -0.000  -0.000  -0.000  -0.085   0.000  -2.158   0.000   0.000   0.013   0.000   2.230
 -0.000  -0.000   0.000   0.000   0.000  -0.000  -0.000  -0.000  -0.128  -0.000   0.216   0.000   0.000   0.098   0.000  -0.167
  0.000   0.000   0.000   0.000  -0.000   0.000   0.000   0.000   0.008  -0.000  -0.014   0.000   0.000  -0.005  -0.000   0.009
 total augmentation occupancy for first ion, spin component:           2
 -0.002   0.000   0.000  -0.009   0.000  -0.000   0.000   0.000   0.000   0.000  -0.000   0.000  -0.000  -0.000  -0.000   0.000
  0.000  -0.002   0.000  -0.000  -0.009   0.000   0.000   0.000   0.000   0.000   0.000   0.000   0.000  -0.000  -0.000  -0.000
  0.000   0.000  -0.002   0.000  -0.000  -0.009   0.000   0.000   0.000   0.000  -0.000   0.000   0.000   0.000  -0.000   0.000
 -0.009  -0.000   0.000  -0.005  -0.000   0.000   0.000  -0.000   0.000   0.000  -0.000   0.000   0.000   0.000   0.000   0.000
  0.000  -0.009  -0.000  -0.000  -0.005   0.000   0.000   0.000  -0.000   0.000  -0.000   0.000   0.000   0.000   0.000   0.000
 -0.000   0.000  -0.009   0.000   0.000  -0.010  -0.000   0.000   0.000  -0.000  -0.000  -0.000  -0.000  -0.000   0.000  -0.000
  0.000   0.000   0.000   0.000   0.000  -0.000   2.352   0.000   0.000  -0.000   0.000  -1.042  -0.000  -0.000   0.000   0.000
  0.000   0.000   0.000  -0.000   0.000   0.000   0.000   1.998  -0.000   0.000  -0.000   0.000  -0.727  -0.000  -0.000   0.000
  0.000   0.000   0.000   0.000  -0.000   0.000   0.000  -0.000   2.655   0.000   0.084  -0.000  -0.000  -1.124   0.000  -0.090
  0.000   0.000   0.000   0.000   0.000  -0.000  -0.000   0.000   0.000   2.341   0.000   0.000  -0.000  -0.000  -1.036   0.000
 -0.000   0.000  -0.000  -0.000  -0.000  -0.000   0.000  -0.000   0.084   0.000   2.552  -0.000  -0.000  -0.090   0.000  -1.016
  0.000   0.000   0.000   0.000   0.000  -0.000  -1.042   0.000  -0.000   0.000  -0.000   0.252   0.000   0.000  -0.000   0.000
 -0.000   0.000   0.000   0.000   0.000  -0.000  -0.000  -0.727  -0.000  -0.000  -0.000   0.000  -0.019   0.000  -0.000  -0.000
 -0.000  -0.000   0.000   0.000   0.000  -0.000  -0.000  -0.000  -1.124  -0.000  -0.090   0.000   0.000   0.321   0.000   0.104
 -0.000  -0.000  -0.000   0.000   0.000   0.000   0.000  -0.000   0.000  -1.036   0.000  -0.000  -0.000   0.000   0.247  -0.000
  0.000  -0.000   0.000   0.000   0.000  -0.000   0.000   0.000  -0.090   0.000  -1.016   0.000  -0.000   0.104  -0.000   0.198
 -0.000  -0.000  -0.000   0.000  -0.000   0.000  -0.000   0.000  -0.031  -0.000   0.050   0.000   0.000   0.031  -0.000  -0.051
 -0.000   0.000   0.000   0.000   0.000  -0.000  -0.000  -0.000   0.003  -0.000  -0.005   0.000   0.000  -0.001   0.000   0.001


------------------------ aborting loop because EDIFF is reached ----------------------------------------





 total charge

# of ion       s       p       d       tot
------------------------------------------
    1        0.375   6.383   6.093  12.852
    2        0.375   6.383   6.093  12.851
    3        0.375   6.383   6.093  12.852
    4        0.375   6.383   6.093  12.852
    5        0.375   6.383   6.093  12.852
    6        0.375   6.383   6.093  12.852
    7        0.375   6.383   6.093  12.852
    8        0.375   6.383   6.093  12.851
    9        0.375   6.383   6.093  12.852
   10        0.813   0.821   8.079   9.714
   11        0.814   0.821   8.079   9.714
   12        0.814   0.821   8.079   9.714
--------------------------------------------------
tot          5.817  59.913  79.076 144.805



 magnetization (x)

# of ion       s       p       d       tot
------------------------------------------
    1       -0.003  -0.015   2.513   2.495
    2       -0.003  -0.015   2.514   2.496
    3       -0.003  -0.015   2.513   2.495
    4       -0.003  -0.015   2.513   2.495
    5       -0.003  -0.015   2.512   2.494
    6       -0.003  -0.015   2.512   2.494
    7       -0.003  -0.015   2.513   2.495
    8       -0.003  -0.015   2.514   2.496
    9       -0.003  -0.015   2.513   2.495
   10       -0.039  -0.099   0.385   0.248
   11       -0.039  -0.099   0.385   0.248
   12       -0.039  -0.099   0.385   0.248
--------------------------------------------------
tot         -0.146  -0.429  23.775  23.201
 
    FORLOC:  cpu time      0.0009: real time      0.0009
    FORNL :  cpu time      0.6663: real time      0.6701
    STRESS:  cpu time      3.9170: real time      3.9491
    FORCOR:  cpu time      0.0212: real time      0.0213
    OFIELD:  cpu time      0.0002: real time      0.0002

  FORCE on cell =-STRESS in cart. coord.  units (eV):
  Direction    XX          YY          ZZ          XY          YZ          ZX
  --------------------------------------------------------------------------------------
  Alpha Z  1198.52204  1198.52204  1198.52204
  Ewald   -6222.67824 -6222.67824 -6223.02376     0.00000     0.00000    -0.00000
  Hartree  1790.24040  1790.24040  1789.88776    -0.00000    -0.00000    -0.00000
  E(xc)    -947.55263  -947.55263  -947.55339     0.00000    -0.00000     0.00000
  Local    1251.41892  1251.41892  1252.37522    -0.00000     0.00000    -0.00000
  n-local  -194.48992  -207.81889  -201.36272    16.41551    -0.09727    -0.14330
  augment  1435.51269  1435.51269  1435.45162     0.00000    -0.00000     0.00000
  Kinetic  1719.02071  1708.00528  1713.42697     0.80305     0.42148     0.45495
  Fock        0.00000     0.00000     0.00000     0.00000     0.00000     0.00000
  -------------------------------------------------------------------------------------
  Total      17.82177    17.82177    17.72375     0.00000     0.00000     0.00000
  in kB     201.08195   201.08195   199.97597     0.00000     0.00000     0.00000
  external pressure =      200.71 kB  Pullay stress =        0.00 kB


 VOLUME and BASIS-vectors are now :
 -----------------------------------------------------------------------------
  energy-cutoff  :      520.00
  volume of cell :      142.00
      direct lattice vectors                 reciprocal lattice vectors
     3.616969510  0.000000000  0.000000000     0.276474545  0.000000000  0.000000000
     0.000000000  3.616969510  0.000000000     0.000000000  0.276474545  0.000000000
     0.000000000  0.000000000 10.854220721     0.000000000  0.000000000  0.092130059

  length of vectors
     3.616969510  3.616969510 10.854220721     0.276474545  0.276474545  0.092130059


 FORCES acting on ions:
    Electron-Ion                     Ewald-Force                    Non-Local-Force
 -----------------------------------------------------------------------------------------------
   -.844E-13 0.959E-12 0.175E+00   0.131E-13 -.538E-14 -.180E+00   0.364E-21 0.171E-20 -.218E-02
   -.846E-13 0.110E-11 0.278E-11   0.344E-13 0.150E-13 0.568E-13   0.104E-23 -.874E-23 -.107E-22
   -.845E-13 0.798E-12 -.175E+00   0.303E-13 0.245E-13 0.180E+00   -.307E-21 0.322E-20 0.218E-02
   0.106E-11 0.786E-11 0.508E-11   0.780E-14 -.264E-13 0.114E-12   -.589E-23 -.711E-23 -.787E-23
   0.104E-11 0.704E-11 -.865E+00   -.891E-14 -.402E-14 0.869E+00   -.180E-20 0.265E-20 -.359E-02
   0.104E-11 0.706E-11 0.865E+00   -.403E-13 -.113E-13 -.869E+00   0.132E-20 0.892E-21 0.359E-02
   0.108E-11 -.698E-13 0.175E+00   -.239E-13 0.111E-13 -.180E+00   -.311E-20 -.138E-20 -.218E-02
   0.109E-11 -.718E-13 0.551E-11   -.444E-15 0.156E-13 -.568E-13   -.654E-23 -.221E-23 -.370E-23
   0.108E-11 -.721E-13 -.175E+00   -.113E-13 0.274E-13 0.180E+00   0.323E-20 0.967E-21 0.218E-02
   -.551E-13 -.556E-13 0.417E-13   -.160E-13 0.223E-13 0.227E-12   0.125E-23 0.159E-23 -.183E-22
   -.552E-13 -.559E-13 -.526E+00   0.164E-13 -.151E-13 0.530E+00   0.193E-20 -.829E-22 0.156E-02
   -.553E-13 -.554E-13 0.526E+00   0.336E-14 -.193E-13 -.530E+00   -.259E-20 0.539E-21 -.156E-02
 -----------------------------------------------------------------------------------------------
   0.600E-11 0.246E-10 0.273E-10   0.445E-14 0.344E-13 0.200E-12   -.973E-21 0.849E-20 -.434E-18
 
 
 POSITION                                       TOTAL-FORCE (eV/Angst)
 -----------------------------------------------------------------------------------
      0.00000      1.80848      1.80914        -0.000000     -0.000000     -0.006614
      0.00000      1.80848      5.42711        -0.000000     -0.000000     -0.000000
      0.00000      1.80848      9.04508        -0.000000     -0.000000      0.006614
      1.80848      1.80848      0.00000         0.000000      0.000000     -0.000000
      1.80848      1.80848      3.61764         0.000000      0.000000      0.000350
      1.80848      1.80848      7.23658         0.000000      0.000000     -0.000350
      1.80848      0.00000      1.80914        -0.000000     -0.000000     -0.006614
      1.80848      0.00000      5.42711         0.000000     -0.000000     -0.000000
      1.80848      0.00000      9.04508         0.000000     -0.000000      0.006614
      0.00000      0.00000      0.00000        -0.000000     -0.000000     -0.000000
      0.00000      0.00000      3.61781        -0.000000     -0.000000      0.004600
      0.00000      0.00000      7.23641        -0.000000     -0.000000     -0.004600
 -----------------------------------------------------------------------------------
    total drift:                                0.000000      0.000000      0.000000


--------------------------------------------------------------------------------------------------------



  FREE ENERGIE OF THE ION-ELECTRON SYSTEM (eV)
  ---------------------------------------------------
  free  energy   TOTEN  =       -92.67302683 eV

  energy  without entropy=      -92.69241582  energy(sigma->0) =      -92.67948982
 


--------------------------------------------------------------------------------------------------------


    POTLOK:  cpu time      0.0379: real time      0.0382


--------------------------------------------------------------------------------------------------------




--------------------------------------------------------------------------------------------------------


  
 reached required accuracy - stopping structural energy minimisation
     LOOP+:  cpu time    192.4994: real time    194.5477
    4ORBIT:  cpu time      0.0000: real time      0.0000



 total charge

# of ion       s       p       d       tot
------------------------------------------
    1        0.375   6.383   6.093  12.852
    2        0.375   6.383   6.093  12.851
    3        0.375   6.383   6.093  12.852
    4        0.375   6.383   6.093  12.852
    5        0.375   6.383   6.093  12.852
    6        0.375   6.383   6.093  12.852
    7        0.375   6.383   6.093  12.852
    8        0.375   6.383   6.093  12.851
    9        0.375   6.383   6.093  12.852
   10        0.813   0.821   8.079   9.714
   11        0.814   0.821   8.079   9.714
   12        0.814   0.821   8.079   9.714
--------------------------------------------------
tot          5.817  59.913  79.076 144.805



 magnetization (x)

# of ion       s       p       d       tot
------------------------------------------
    1       -0.003  -0.015   2.513   2.495
    2       -0.003  -0.015   2.514   2.496
    3       -0.003  -0.015   2.513   2.495
    4       -0.003  -0.015   2.513   2.495
    5       -0.003  -0.015   2.512   2.494
    6       -0.003  -0.015   2.512   2.494
    7       -0.003  -0.015   2.513   2.495
    8       -0.003  -0.015   2.514   2.496
    9       -0.003  -0.015   2.513   2.495
   10       -0.039  -0.099   0.385   0.248
   11       -0.039  -0.099   0.385   0.248
   12       -0.039  -0.099   0.385   0.248
--------------------------------------------------
tot         -0.146  -0.429  23.775  23.201
 

 total amount of memory used by VASP MPI-rank0   264608. kBytes
=======================================================================

   base      :      30000. kBytes
   nonl-proj :      94414. kBytes
   fftplans  :        888. kBytes
   grid      :       6813. kBytes
   one-center:        373. kBytes
   wavefun   :     132120. kBytes
 
  
  
 General timing and accounting informations for this job:
 ========================================================
  
                  Total CPU time used (sec):      212.330
                            User time (sec):      203.942
                          System time (sec):        8.388
                         Elapsed time (sec):      218.773
  
                   Maximum memory used (kb):     1195660.
                   Average memory used (kb):          N/A
  
                          Minor page faults:       193188
                          Major page faults:          706
                 Voluntary context switches:         9499
