 vasp.6.4.3 19Mar24 (build Mar 26 2024 14:05:37) complex                        
  
 executed on             LinuxIFC date 2024.12.16  09:07:01
 running  128 mpi-ranks, on    1 nodes
 distrk:  each k-point on   32 cores,    4 groups
 distr:  one band on NCORE=   1 cores,   32 groups


--------------------------------------------------------------------------------------------------------


 INCAR:
   ALGO = Normal
   EDIFF = 1e-06
   EDIFFG = -0.01
   ENCUT = 520
   GGA = Pe
   IBRION = -1
   ISIF = 4
   ISMEAR = -5
   ISPIN = 2
   KPAR = 4
   LCHARG = True
   LORBIT = 11
   LREAL = False
   LWAVE = False
   MAGMOM = 1*2.495 1*2.496 2*2.495 2*2.494 1*2.495 1*2.496 1*2.495 3*0.248
   NELM = 200
   NSW = 0
   PREC = Accurate
   SIGMA = 0.2

 POTCAR:    PAW_PBE Fe_pv 02Aug2007               
 POTCAR:    PAW_PBE Pt 04Feb2005                  
 -----------------------------------------------------------------------------
|                                                                             |
|           W    W    AA    RRRRR   N    N  II  N    N   GGGG   !!!           |
|           W    W   A  A   R    R  NN   N  II  NN   N  G    G  !!!           |
|           W    W  A    A  R    R  N N  N  II  N N  N  G       !!!           |
|           W WW W  AAAAAA  RRRRR   N  N N  II  N  N N  G  GGG   !            |
|           WW  WW  A    A  R   R   N   NN  II  N   NN  G    G                |
|           W    W  A    A  R    R  N    N  II  N    N   GGGG   !!!           |
|                                                                             |
|     For optimal performance we recommend to set                             |
|       NCORE = 2 up to number-of-cores-per-socket                            |
|     NCORE specifies how many cores store one orbital (NPAR=cpu/NCORE).      |
|     This setting can greatly improve the performance of VASP for DFT.       |
|     The default, NCORE=1 might be grossly inefficient on modern             |
|     multi-core architectures or massively parallel machines. Do your        |
|     own testing! More info at https://www.vasp.at/wiki/index.php/NCORE      |
|     Unfortunately you need to use the default for GW and RPA                |
|     calculations (for HF NCORE is supported but not extensively tested      |
|     yet).                                                                   |
|                                                                             |
 -----------------------------------------------------------------------------

 POTCAR:    PAW_PBE Fe_pv 02Aug2007               
   SHA256 =  5d22e414b1f82158bf2c7ecb8b97b28fd0923e48cadc1c3bf74d524558f5dd32 Fe_pv/POTCAR          
   COPYR  = (c) Copyright 02Aug2007 Georg Kresse                                                    
   COPYR  = This file is part of the software VASP. Any use, copying, and all other rights are regul
   COPYR  = If you do not have a valid VASP license, you may not use, copy or distribute this file. 
   VRHFIN =Fe:  3pd7s1                                                                              
   LEXCH  = PE                                                                                      
   EATOM  =  2457.4239 eV,  180.6156 Ry                                                             
                                                                                                    
   TITEL  = PAW_PBE Fe_pv 02Aug2007                                                                 
   LULTRA =        F    use ultrasoft PP ?                                                          
   IUNSCR =        1    unscreen: 0-lin 1-nonlin 2-no                                               
   RPACOR =    1.750    partial core radius                                                         
   POMASS =   55.847; ZVAL   =   14.000    mass and valenz                                          
   RCORE  =    2.200    outmost cutoff radius                                                       
   RWIGS  =    2.200; RWIGS  =    1.164    wigner-seitz radius (au A)                               
   ENMAX  =  293.238; ENMIN  =  219.928 eV                                                          
   ICORE  =        3    local potential                                                             
   LCOR   =        T    correct aug charges                                                         
   LPAW   =        T    paw PP                                                                      
   EAUG   =  578.342                                                                                
   DEXC   =    0.000                                                                                
   RMAX   =    2.249    core radius for proj-oper                                                   
   RAUG   =    1.300    factor for augmentation sphere                                              
   RDEP   =    2.296    radius for radial grids                                                     
   RDEPT  =    1.766    core radius for aug-charge                                                  
                                                                                                    
   Atomic configuration                                                                             
    8 entries                                                                                       
     n  l   j            E        occ.                                                              
     1  0  0.50     -6993.8440   2.0000                                                             
     2  0  0.50      -814.6047   2.0000                                                             
     2  1  1.50      -693.3689   6.0000                                                             
     3  0  0.50       -89.4732   2.0000                                                             
     3  1  1.50       -55.6373   6.0000                                                             
     3  2  2.50        -3.8151   7.0000                                                             
     4  0  0.50        -4.2551   1.0000                                                             
     4  3  2.50        -1.3606   0.0000                                                             
   Description                                                                                      
     l       E           TYP  RCUT    TYP  RCUT                                                     
     1    -55.6372668     23  2.000                                                                 
     1     -5.4423304     23  2.000                                                                 
     2     -3.8151096     23  2.200                                                                 
     2     -5.1756922     23  2.200                                                                 
     0     -4.2550951     23  2.200                                                                 
     0     27.2116520     23  2.200                                                                 
     3     -1.3605826     23  2.200                                                                 
  local pseudopotential read in
  partial core-charges read in
  partial kinetic energy density read in
  atomic valenz-charges read in
  non local Contribution for L=           1  read in
    real space projection operators read in
  non local Contribution for L=           1  read in
    real space projection operators read in
  non local Contribution for L=           2  read in
    real space projection operators read in
  non local Contribution for L=           2  read in
    real space projection operators read in
  non local Contribution for L=           0  read in
    real space projection operators read in
  non local Contribution for L=           0  read in
    real space projection operators read in
    PAW grid and wavefunctions read in
 
   number of l-projection  operators is LMAX  =           6
   number of lm-projection operators is LMMAX =          18
 
 POTCAR:    PAW_PBE Pt 04Feb2005                  
   SHA256 =  3ed90460adef76debcff1cfb73ee1349b515b1a3db03439735b44de3a8db7dc8 Pt/POTCAR             
   COPYR  = (c) Copyright 04Feb2005 Georg Kresse                                                    
   COPYR  = This file is part of the software VASP. Any use, copying, and all other rights are regul
   COPYR  = If you do not have a valid VASP license, you may not use, copy or distribute this file. 
   VRHFIN =Pt: s1d9                                                                                 
   LEXCH  = PE                                                                                      
   EATOM  =   729.1176 eV,   53.5886 Ry                                                             
                                                                                                    
   TITEL  = PAW_PBE Pt 04Feb2005                                                                    
   LULTRA =        F    use ultrasoft PP ?                                                          
   IUNSCR =        1    unscreen: 0-lin 1-nonlin 2-no                                               
   RPACOR =    2.330    partial core radius                                                         
   POMASS =  195.080; ZVAL   =   10.000    mass and valenz                                          
   RCORE  =    2.600    outmost cutoff radius                                                       
   RWIGS  =    2.750; RWIGS  =    1.455    wigner-seitz radius (au A)                               
   ENMAX  =  230.283; ENMIN  =  172.712 eV                                                          
   ICORE  =        3    local potential                                                             
   LCOR   =        T    correct aug charges                                                         
   LPAW   =        T    paw PP                                                                      
   EAUG   =  358.966                                                                                
   DEXC   =    0.000                                                                                
   RMAX   =    2.658    core radius for proj-oper                                                   
   RAUG   =    1.300    factor for augmentation sphere                                              
   RDEP   =    2.761    radius for radial grids                                                     
   RDEPT  =    2.203    core radius for aug-charge                                                  
                                                                                                    
   Atomic configuration                                                                             
   16 entries                                                                                       
     n  l   j            E        occ.                                                              
     1  0  0.50    -78401.1885   2.0000                                                             
     2  0  0.50    -13770.7750   2.0000                                                             
     2  1  1.50    -11931.0468   6.0000                                                             
     3  0  0.50     -3234.7234   2.0000                                                             
     3  1  1.50     -2699.2216   6.0000                                                             
     3  2  2.50     -2119.5714  10.0000                                                             
     4  0  0.50      -695.1528   2.0000                                                             
     4  1  1.50      -519.6034   6.0000                                                             
     4  2  2.50      -306.6786  10.0000                                                             
     4  3  3.50       -70.1041  14.0000                                                             
     5  0  0.50      -101.7747   2.0000                                                             
     5  1  1.50       -55.9873   6.0000                                                             
     5  2  2.50        -6.1423   9.0000                                                             
     6  0  0.50        -5.6573   1.0000                                                             
     6  1  1.50        -6.8029   0.0000                                                             
     5  3  2.50        -1.3606   0.0000                                                             
   Description                                                                                      
     l       E           TYP  RCUT    TYP  RCUT                                                     
     2     -6.1423404     23  2.500                                                                 
     2     -7.5029230     23  2.500                                                                 
     0     -5.6573207     23  2.500                                                                 
     0      0.7416693     23  2.500                                                                 
     1     -2.7211652     23  2.600                                                                 
     1     20.4087390     23  2.600                                                                 
     3     -1.3605826     23  2.500                                                                 
  local pseudopotential read in
  partial core-charges read in
  partial kinetic energy density read in
  atomic valenz-charges read in
  non local Contribution for L=           2  read in
    real space projection operators read in
  non local Contribution for L=           2  read in
    real space projection operators read in
  non local Contribution for L=           0  read in
    real space projection operators read in
  non local Contribution for L=           0  read in
    real space projection operators read in
  non local Contribution for L=           1  read in
    real space projection operators read in
  non local Contribution for L=           1  read in
    real space projection operators read in
    PAW grid and wavefunctions read in
 
   number of l-projection  operators is LMAX  =           6
   number of lm-projection operators is LMMAX =          18
 
  PAW_PBE Fe_pv 02Aug2007               :
 energy of atom  1       EATOM=-2457.4239
 kinetic energy error for atom=    0.0062 (will be added to EATOM!!)
  PAW_PBE Pt 04Feb2005                  :
 energy of atom  2       EATOM= -729.1176
 kinetic energy error for atom=    0.0032 (will be added to EATOM!!)
 
 
 POSCAR: Fe9 Pt3
  positions in direct lattice
  velocities in cartesian coordinates


 exchange-correlation table for PE
   RHO(1)=    0.500       N(1)  =     2000
   RHO(2)=  100.500       N(2)  =     4000
 


--------------------------------------------------------------------------------------------------------


 ion  position               nearest neighbor table
   1  0.000  0.500  0.167-   7 2.56   7 2.56   7 2.56   7 2.56   5 2.56   5 2.56  11 2.56  11 2.56
                             4 2.56  10 2.56  10 2.56   4 2.56
   2  0.000  0.500  0.500-   8 2.56   8 2.56   8 2.56   8 2.56  11 2.56  12 2.56  12 2.56  11 2.56
                             5 2.56   6 2.56   5 2.56   6 2.56
   3  0.000  0.500  0.833-   9 2.56   9 2.56   9 2.56   9 2.56   6 2.56   6 2.56  12 2.56  12 2.56
                             4 2.56  10 2.56  10 2.56   4 2.56
   4  0.500  0.500  0.000-  10 2.56  10 2.56  10 2.56  10 2.56   1 2.56   7 2.56   9 2.56   3 2.56
                             1 2.56   3 2.56   7 2.56   9 2.56
   5  0.500  0.500  0.333-  11 2.56  11 2.56  11 2.56  11 2.56   7 2.56   1 2.56   1 2.56   7 2.56
                             8 2.56   2 2.56   8 2.56   2 2.56
   6  0.500  0.500  0.667-  12 2.56  12 2.56  12 2.56  12 2.56   9 2.56   3 2.56   3 2.56   9 2.56
                             2 2.56   8 2.56   2 2.56   8 2.56
   7  0.500  0.000  0.167-   1 2.56   1 2.56   1 2.56   1 2.56   5 2.56   5 2.56  11 2.56  11 2.56
                            10 2.56  10 2.56   4 2.56   4 2.56
   8  0.500  0.000  0.500-   2 2.56   2 2.56   2 2.56   2 2.56  12 2.56  11 2.56  12 2.56  11 2.56
                             6 2.56   5 2.56   5 2.56   6 2.56
   9  0.500  0.000  0.833-   3 2.56   3 2.56   3 2.56   3 2.56   6 2.56   6 2.56  12 2.56  12 2.56
                            10 2.56  10 2.56   4 2.56   4 2.56
  10  0.000  0.000  0.000-   4 2.56   4 2.56   4 2.56   4 2.56   9 2.56   1 2.56   3 2.56   3 2.56
                             1 2.56   7 2.56   9 2.56   7 2.56
  11  0.000  0.000  0.333-   5 2.56   5 2.56   5 2.56   5 2.56   1 2.56   7 2.56   7 2.56   1 2.56
                             2 2.56   2 2.56   8 2.56   8 2.56
  12  0.000  0.000  0.667-   6 2.56   6 2.56   6 2.56   6 2.56   3 2.56   9 2.56   9 2.56   3 2.56
                             2 2.56   8 2.56   8 2.56   2 2.56
 
  LATTYP: Found a simple tetragonal cell.
 ALAT       =     3.6169695103
 C/A-ratio  =     3.0009157362
  
  Lattice vectors:
  
 A1 = (   3.6169695103,   0.0000000000,   0.0000000000)
 A2 = (   0.0000000000,   3.6169695103,   0.0000000000)
 A3 = (   0.0000000000,   0.0000000000,  10.8542207206)


Analysis of symmetry for initial positions (statically):
=====================================================================
 Subroutine PRICEL returns:
 Original cell was already a primitive cell.
 

 Routine SETGRP: Setting up the symmetry group for a 
 simple tetragonal supercell.


 Subroutine GETGRP returns: Found 16 space group operations
 (whereof 16 operations were pure point group operations)
 out of a pool of 16 trial point group operations.


The static configuration has the point symmetry D_4h.


Analysis of symmetry for dynamics (positions and initial velocities):
=====================================================================
 Subroutine PRICEL returns:
 Original cell was already a primitive cell.
 

 Routine SETGRP: Setting up the symmetry group for a 
 simple tetragonal supercell.


 Subroutine GETGRP returns: Found 16 space group operations
 (whereof 16 operations were pure point group operations)
 out of a pool of 16 trial point group operations.


The dynamic configuration has the point symmetry D_4h.


Analysis of structural, dynamic, and magnetic symmetry:
=====================================================================
 Subroutine PRICEL returns:
 Original cell was already a primitive cell.
 

 Routine SETGRP: Setting up the symmetry group for a 
 simple tetragonal supercell.


 Subroutine GETGRP returns: Found 16 space group operations
 (whereof 16 operations were pure point group operations)
 out of a pool of 16 trial point group operations.


The overall configuration has the point symmetry D_4h.


 Subroutine INISYM returns: Found 16 space group operations
 (whereof 16 operations are pure point group operations),
 and found     1 'primitive' translations


----------------------------------------------------------------------------------------

                                     Primitive cell                                     

  volume of cell :     142.0000

  direct lattice vectors                    reciprocal lattice vectors
     3.616969510  0.000000000  0.000000000     0.276474545  0.000000000  0.000000000
     0.000000000  3.616969510  0.000000000     0.000000000  0.276474545  0.000000000
     0.000000000  0.000000000 10.854220721     0.000000000  0.000000000  0.092130059

  length of vectors
     3.616969510  3.616969510 10.854220721     0.276474545  0.276474545  0.092130059

  position of ions in fractional coordinates (direct lattice)
     0.000000000  0.500000000  0.166676517
     0.000000000  0.500000000  0.500000000
     0.000000000  0.500000000  0.833323483
     0.500000000  0.500000000  0.000000000
     0.500000000  0.500000000  0.333293006
     0.500000000  0.500000000  0.666706994
     0.500000000  0.000000000  0.166676517
     0.500000000  0.000000000  0.500000000
     0.500000000  0.000000000  0.833323483
     0.000000000  0.000000000  0.000000000
     0.000000000  0.000000000  0.333309487
     0.000000000  0.000000000  0.666690513

  ion indices of the primitive-cell ions
   primitive index   ion index
                 1           1
                 2           2
                 3           3
                 4           4
                 5           5
                 6           6
                 7           7
                 8           8
                 9           9
                10          10
                11          11
                12          12

----------------------------------------------------------------------------------------

 
 
 KPOINTS: pymatgen with grid density = 8800 / numb

Automatic generation of k-mesh.
 Grid dimensions read from file:
 generate k-points for:   13   13    4

 Generating k-lattice:

  Cartesian coordinates                     Fractional coordinates (reciprocal lattice)
     0.021267273  0.000000000  0.000000000     0.076923077  0.000000000  0.000000000
     0.000000000  0.021267273  0.000000000     0.000000000  0.076923077  0.000000000
     0.000000000  0.000000000  0.023032515     0.000000000  0.000000000  0.250000000

  Length of vectors
     0.021267273  0.021267273  0.023032515

  Shift w.r.t. Gamma in fractional coordinates (k-lattice)
     0.000000000  0.000000000  0.000000000

 TETIRR: Found   1010 inequivalent tetrahedra from     4056
 
 Subroutine IBZKPT returns following result:
 ===========================================
 
 Found     84 irreducible k-points:
 
 Following reciprocal coordinates:
            Coordinates               Weight
  0.000000  0.000000  0.000000      1.000000
  0.076923  0.000000  0.000000      4.000000
  0.153846  0.000000  0.000000      4.000000
  0.230769  0.000000  0.000000      4.000000
  0.307692  0.000000  0.000000      4.000000
  0.384615  0.000000  0.000000      4.000000
  0.461538  0.000000  0.000000      4.000000
  0.076923  0.076923  0.000000      4.000000
  0.153846  0.076923  0.000000      8.000000
  0.230769  0.076923  0.000000      8.000000
  0.307692  0.076923  0.000000      8.000000
  0.384615  0.076923  0.000000      8.000000
  0.461538  0.076923  0.000000      8.000000
  0.153846  0.153846  0.000000      4.000000
  0.230769  0.153846  0.000000      8.000000
  0.307692  0.153846  0.000000      8.000000
  0.384615  0.153846  0.000000      8.000000
  0.461538  0.153846  0.000000      8.000000
  0.230769  0.230769  0.000000      4.000000
  0.307692  0.230769  0.000000      8.000000
  0.384615  0.230769  0.000000      8.000000
  0.461538  0.230769  0.000000      8.000000
  0.307692  0.307692  0.000000      4.000000
  0.384615  0.307692  0.000000      8.000000
  0.461538  0.307692  0.000000      8.000000
  0.384615  0.384615  0.000000      4.000000
  0.461538  0.384615  0.000000      8.000000
  0.461538  0.461538  0.000000      4.000000
  0.000000  0.000000  0.250000      2.000000
  0.076923  0.000000  0.250000      8.000000
  0.153846  0.000000  0.250000      8.000000
  0.230769  0.000000  0.250000      8.000000
  0.307692  0.000000  0.250000      8.000000
  0.384615  0.000000  0.250000      8.000000
  0.461538  0.000000  0.250000      8.000000
  0.076923  0.076923  0.250000      8.000000
  0.153846  0.076923  0.250000     16.000000
  0.230769  0.076923  0.250000     16.000000
  0.307692  0.076923  0.250000     16.000000
  0.384615  0.076923  0.250000     16.000000
  0.461538  0.076923  0.250000     16.000000
  0.153846  0.153846  0.250000      8.000000
  0.230769  0.153846  0.250000     16.000000
  0.307692  0.153846  0.250000     16.000000
  0.384615  0.153846  0.250000     16.000000
  0.461538  0.153846  0.250000     16.000000
  0.230769  0.230769  0.250000      8.000000
  0.307692  0.230769  0.250000     16.000000
  0.384615  0.230769  0.250000     16.000000
  0.461538  0.230769  0.250000     16.000000
  0.307692  0.307692  0.250000      8.000000
  0.384615  0.307692  0.250000     16.000000
  0.461538  0.307692  0.250000     16.000000
  0.384615  0.384615  0.250000      8.000000
  0.461538  0.384615  0.250000     16.000000
  0.461538  0.461538  0.250000      8.000000
  0.000000  0.000000  0.500000      1.000000
  0.076923  0.000000  0.500000      4.000000
  0.153846  0.000000  0.500000      4.000000
  0.230769  0.000000  0.500000      4.000000
  0.307692  0.000000  0.500000      4.000000
  0.384615  0.000000  0.500000      4.000000
  0.461538  0.000000  0.500000      4.000000
  0.076923  0.076923  0.500000      4.000000
  0.153846  0.076923  0.500000      8.000000
  0.230769  0.076923  0.500000      8.000000
  0.307692  0.076923  0.500000      8.000000
  0.384615  0.076923  0.500000      8.000000
  0.461538  0.076923  0.500000      8.000000
  0.153846  0.153846  0.500000      4.000000
  0.230769  0.153846  0.500000      8.000000
  0.307692  0.153846  0.500000      8.000000
  0.384615  0.153846  0.500000      8.000000
  0.461538  0.153846  0.500000      8.000000
  0.230769  0.230769  0.500000      4.000000
  0.307692  0.230769  0.500000      8.000000
  0.384615  0.230769  0.500000      8.000000
  0.461538  0.230769  0.500000      8.000000
  0.307692  0.307692  0.500000      4.000000
  0.384615  0.307692  0.500000      8.000000
  0.461538  0.307692  0.500000      8.000000
  0.384615  0.384615  0.500000      4.000000
  0.461538  0.384615  0.500000      8.000000
  0.461538  0.461538  0.500000      4.000000
 
 Following cartesian coordinates:
            Coordinates               Weight
  0.000000  0.000000  0.000000      1.000000
  0.021267  0.000000  0.000000      4.000000
  0.042535  0.000000  0.000000      4.000000
  0.063802  0.000000  0.000000      4.000000
  0.085069  0.000000  0.000000      4.000000
  0.106336  0.000000  0.000000      4.000000
  0.127604  0.000000  0.000000      4.000000
  0.021267  0.021267  0.000000      4.000000
  0.042535  0.021267  0.000000      8.000000
  0.063802  0.021267  0.000000      8.000000
  0.085069  0.021267  0.000000      8.000000
  0.106336  0.021267  0.000000      8.000000
  0.127604  0.021267  0.000000      8.000000
  0.042535  0.042535  0.000000      4.000000
  0.063802  0.042535  0.000000      8.000000
  0.085069  0.042535  0.000000      8.000000
  0.106336  0.042535  0.000000      8.000000
  0.127604  0.042535  0.000000      8.000000
  0.063802  0.063802  0.000000      4.000000
  0.085069  0.063802  0.000000      8.000000
  0.106336  0.063802  0.000000      8.000000
  0.127604  0.063802  0.000000      8.000000
  0.085069  0.085069  0.000000      4.000000
  0.106336  0.085069  0.000000      8.000000
  0.127604  0.085069  0.000000      8.000000
  0.106336  0.106336  0.000000      4.000000
  0.127604  0.106336  0.000000      8.000000
  0.127604  0.127604  0.000000      4.000000
  0.000000  0.000000  0.023033      2.000000
  0.021267  0.000000  0.023033      8.000000
  0.042535  0.000000  0.023033      8.000000
  0.063802  0.000000  0.023033      8.000000
  0.085069  0.000000  0.023033      8.000000
  0.106336  0.000000  0.023033      8.000000
  0.127604  0.000000  0.023033      8.000000
  0.021267  0.021267  0.023033      8.000000
  0.042535  0.021267  0.023033     16.000000
  0.063802  0.021267  0.023033     16.000000
  0.085069  0.021267  0.023033     16.000000
  0.106336  0.021267  0.023033     16.000000
  0.127604  0.021267  0.023033     16.000000
  0.042535  0.042535  0.023033      8.000000
  0.063802  0.042535  0.023033     16.000000
  0.085069  0.042535  0.023033     16.000000
  0.106336  0.042535  0.023033     16.000000
  0.127604  0.042535  0.023033     16.000000
  0.063802  0.063802  0.023033      8.000000
  0.085069  0.063802  0.023033     16.000000
  0.106336  0.063802  0.023033     16.000000
  0.127604  0.063802  0.023033     16.000000
  0.085069  0.085069  0.023033      8.000000
  0.106336  0.085069  0.023033     16.000000
  0.127604  0.085069  0.023033     16.000000
  0.106336  0.106336  0.023033      8.000000
  0.127604  0.106336  0.023033     16.000000
  0.127604  0.127604  0.023033      8.000000
  0.000000  0.000000  0.046065      1.000000
  0.021267  0.000000  0.046065      4.000000
  0.042535  0.000000  0.046065      4.000000
  0.063802  0.000000  0.046065      4.000000
  0.085069  0.000000  0.046065      4.000000
  0.106336  0.000000  0.046065      4.000000
  0.127604  0.000000  0.046065      4.000000
  0.021267  0.021267  0.046065      4.000000
  0.042535  0.021267  0.046065      8.000000
  0.063802  0.021267  0.046065      8.000000
  0.085069  0.021267  0.046065      8.000000
  0.106336  0.021267  0.046065      8.000000
  0.127604  0.021267  0.046065      8.000000
  0.042535  0.042535  0.046065      4.000000
  0.063802  0.042535  0.046065      8.000000
  0.085069  0.042535  0.046065      8.000000
  0.106336  0.042535  0.046065      8.000000
  0.127604  0.042535  0.046065      8.000000
  0.063802  0.063802  0.046065      4.000000
  0.085069  0.063802  0.046065      8.000000
  0.106336  0.063802  0.046065      8.000000
  0.127604  0.063802  0.046065      8.000000
  0.085069  0.085069  0.046065      4.000000
  0.106336  0.085069  0.046065      8.000000
  0.127604  0.085069  0.046065      8.000000
  0.106336  0.106336  0.046065      4.000000
  0.127604  0.106336  0.046065      8.000000
  0.127604  0.127604  0.046065      4.000000
 


--------------------------------------------------------------------------------------------------------




 Dimension of arrays:
   k-points           NKPTS =     84   k-points in BZ     NKDIM =     84   number of bands    NBANDS=    128
   number of dos      NEDOS =    301   number of ions     NIONS =     12
   non local maximal  LDIM  =      6   non local SUM 2l+1 LMDIM =     18
   total plane-waves  NPLWV =  65856
   max r-space proj   IRMAX =      1   max aug-charges    IRDMAX=  28286
   dimension x,y,z NGX =    28 NGY =   28 NGZ =   84
   dimension x,y,z NGXF=    56 NGYF=   56 NGZF=  168
   support grid    NGXF=    56 NGYF=   56 NGZF=  168
   ions per type =               9   3
   NGX,Y,Z   is equivalent  to a cutoff of  12.87, 12.87, 12.87 a.u.
   NGXF,Y,Z  is equivalent  to a cutoff of  25.74, 25.74, 25.73 a.u.

 SYSTEM =  unknown system                          
 POSCAR =  Fe9 Pt3                                 

 Startparameter for this run:
   NWRITE =      2    write-flag & timer
   PREC   = accura    normal or accurate (medium, high low for compatibility)
   ISTART =      0    job   : 0-new  1-cont  2-samecut
   ICHARG =      2    charge: 1-file 2-atom 10-const
   ISPIN  =      2    spin polarized calculation?
   LNONCOLLINEAR =      F non collinear calculations
   LSORBIT =      F    spin-orbit coupling
   INIWAV =      1    electr: 0-lowe 1-rand  2-diag
   LASPH  =      F    aspherical Exc in radial PAW
 Electronic Relaxation 1
   ENCUT  =  520.0 eV  38.22 Ry    6.18 a.u.   6.73  6.73 20.18*2*pi/ulx,y,z
   ENINI  =  520.0     initial cutoff
   ENAUG  =  578.3 eV  augmentation charge cutoff
   NELM   =    200;   NELMIN=  2; NELMDL=  0     # of ELM steps 
   EDIFF  = 0.1E-05   stopping-criterion for ELM
   LREAL  =      F    real-space projection
   NLSPLINE    = F    spline interpolate recip. space projectors
   LCOMPAT=      F    compatible to vasp.4.4
   GGA_COMPAT  = T    GGA compatible to vasp.4.4-vasp.4.6
   LMAXPAW     = -100 max onsite density
   LMAXMIX     =    2 max onsite mixed and CHGCAR
   VOSKOWN=      0    Vosko Wilk Nusair interpolation
   ROPT   =    0.00000   0.00000
 Ionic relaxation
   EDIFFG = -.1E-01   stopping-criterion for IOM
   NSW    =      0    number of steps for IOM
   NBLOCK =      1;   KBLOCK =      1    inner block; outer block 
   IBRION =     -1    ionic relax: 0-MD 1-quasi-New 2-CG
   NFREE  =      0    steps in history (QN), initial steepest desc. (CG)
   ISIF   =      4    stress and relaxation
   IWAVPR =     10    prediction:  0-non 1-charg 2-wave 3-comb
   ISYM   =      2    0-nonsym 1-usesym 2-fastsym
   LCORR  =      T    Harris-Foulkes like correction to forces

   POTIM  = 0.5000    time-step for ionic-motion
   TEIN   =    0.0    initial temperature
   TEBEG  =    0.0;   TEEND  =   0.0 temperature during run
   SMASS  =  -3.00    Nose mass-parameter (am)
   estimated Nose-frequenzy (Omega)   =  0.10E-29 period in steps = 0.13E+47 mass=  -0.299E-27a.u.
   SCALEE = 1.0000    scale energy and forces
   NPACO  =    256;   APACO  = 10.0  distance and # of slots for P.C.
   PSTRESS=    0.0 pullay stress

  Mass of Ions in am
   POMASS =  55.85195.08
  Ionic Valenz
   ZVAL   =  14.00 10.00
  Atomic Wigner-Seitz radii
   RWIGS  =  -1.00 -1.00
  virtual crystal weights 
   VCA    =   1.00  1.00
   NELECT =     156.0000    total number of electrons
   NUPDOWN=      -1.0000    fix difference up-down

 DOS related values:
   EMIN   =  10.00;   EMAX   =-10.00  energy-range for DOS
   EFERMI =   0.00;   METHOD = LEGACY      
   ISMEAR =    -5;   SIGMA  =   0.20  broadening in eV -4-tet -1-fermi 0-gaus

 Electronic relaxation 2 (details)
   IALGO  =     38    algorithm
   LDIAG  =      T    sub-space diagonalisation (order eigenvalues)
   LSUBROT=      F    optimize rotation matrix (better conditioning)
   TURBO    =      0    0=normal 1=particle mesh
   IRESTART =      0    0=no restart 2=restart with 2 vectors
   NREBOOT  =      0    no. of reboots
   NMIN     =      0    reboot dimension
   EREF     =   0.00    reference energy to select bands
   IMIX   =      4    mixing-type and parameters
     AMIX     =   0.40;   BMIX     =  1.00
     AMIX_MAG =   1.60;   BMIX_MAG =  1.00
     AMIN     =   0.10
     WC   =   100.;   INIMIX=   1;  MIXPRE=   1;  MAXMIX= -45

 Intra band minimization:
   WEIMIN = 0.0000     energy-eigenvalue tresh-hold
   EBREAK =  0.20E-08  absolut break condition
   DEPER  =   0.30     relativ break condition  

   TIME   =   0.40     timestep for ELM

  volume/ion in A,a.u.               =      11.83        79.86
  Fermi-wavevector in a.u.,A,eV,Ry     =   1.689223  3.192168 38.823863  2.853473
  Thomas-Fermi vector in A             =   2.771388
 
 Write flags
   LWAVE        =      F    write WAVECAR
   LDOWNSAMPLE  =      F    k-point downsampling of WAVECAR
   LCHARG       =      T    write CHGCAR
   LVTOT        =      F    write LOCPOT, total local potential
   LVHAR        =      F    write LOCPOT, Hartree potential only
   WRT_POTENTIAL= false  ! write potential to hdf5 file
   LELF         =      F    write electronic localiz. function (ELF)
   LORBIT       =     11    0 simple, 1 ext, 2 COOP (PROOUT), +10 PAW based schemes


 Dipole corrections
   LMONO      =      F    monopole corrections only (constant potential shift)
   LDIPOL     =      F    correct potential (dipole corrections)
   IDIPOL     =      0    1-x, 2-y, 3-z, 4-all directions 
   EPSILON    =  1.0000000 bulk dielectric constant
   LVACPOTAV  =      F  vacuum potentials using an averaging scheme for the charge density
   VACPOTFLAT =  0.1000000 required flatness to determine vacuum potential
 Exchange correlation treatment:
   GGA     = PE    functional components
   XC_C    = 1    coefficients multiplying the functional components
   LIBXC   =     F    Libxc                    
   VOSKOWN =     0    Vosko Wilk Nusair interpolation
   LHFCALC =     F    Hartree Fock is set to
   LHFONE  =     F    Hartree Fock one center treatment
   AEXX    =    0.0000 exact exchange contribution

 Parameters of functionals:
   PE:
     No parameter
 
 Van der Waals corrections
   IVDW    =     0    specifies the selected vdW correction

 Linear response parameters
   LEPSILON=     F    determine dielectric tensor
   LRPA    =     F    only Hartree local field effects (RPA)
   LNABLA  =     F    use nabla operator in PAW spheres
   LVEL    =     F    velocity operator in full k-point grid
   CSHIFT  =0.1000    complex shift for real part using Kramers Kronig
   OMEGAMAX=  -1.0    maximum frequency
   DEG_THRESHOLD= 0.2000000E-02 threshold for treating states as degnerate
   RTIME   =   -0.100 relaxation time in fs
  (WPLASMAI=    0.000 imaginary part of plasma frequency in eV, 0.658/RTIME)
   DFIELD  = 0.0000000 0.0000000 0.0000000 field for delta impulse in time
 
  Optional k-point grid parameters
   LKPOINTS_OPT  =     F    use optional k-point grid
   KPOINTS_OPT_MODE=     1    mode for optional k-point grid
 
 Orbital magnetization related:
   ORBITALMAG=     F  switch on orbital magnetization
   LCHIMAG   =     F  perturbation theory with respect to B field
   DQ        =  0.001000  dq finite difference perturbation B field
   LLRAUG    =     F  two centre corrections for induced B field
   LBONE     =     F  B-component reconstruction in AE one-centre
   LVGVCALC  =     T  calculate vGv susceptibility
   LVGVAPPL  =     F  apply vGv susceptibility instead of pGv for G=0

 Random number generation:
   RANDOM_GENERATOR = DEFAULT
   PCG_SEED         = not used


--------------------------------------------------------------------------------------------------------


 Static calculation
 charge density and potential will be updated during run
 spin polarized calculation
 Variant of blocked Davidson
 Davidson routine will perform the subspace rotation
 perform sub-space diagonalisation
    after iterative eigenvector-optimisation
 modified Broyden-mixing scheme, WC =      100.0
 initial mixing is a Kerker type mixing with AMIX =  0.4000 and BMIX =      1.0000
 Hartree-type preconditioning will be used
 using additional bands           50
 reciprocal scheme for non local part
 use partial core corrections
 calculate Harris-corrections to forces 
   (improved forces if not selfconsistent)
 use gradient corrections 
 use of overlap-Matrix (Vanderbilt PP)
 Fermi weights with tetrahedron method with Bloechl corrections


--------------------------------------------------------------------------------------------------------


  energy-cutoff  :      520.00
  volume of cell :      142.00
      direct lattice vectors                 reciprocal lattice vectors
     3.616969510  0.000000000  0.000000000     0.276474545  0.000000000  0.000000000
     0.000000000  3.616969510  0.000000000     0.000000000  0.276474545  0.000000000
     0.000000000  0.000000000 10.854220721     0.000000000  0.000000000  0.092130059

  length of vectors
     3.616969510  3.616969510 10.854220721     0.276474545  0.276474545  0.092130059


 
 k-points in units of 2pi/SCALE and weight: pymatgen with grid density = 8800 / numb
   0.00000000  0.00000000  0.00000000       0.001
   0.02126727  0.00000000  0.00000000       0.006
   0.04253455  0.00000000  0.00000000       0.006
   0.06380182  0.00000000  0.00000000       0.006
   0.08506909  0.00000000  0.00000000       0.006
   0.10633636  0.00000000  0.00000000       0.006
   0.12760364  0.00000000  0.00000000       0.006
   0.02126727  0.02126727  0.00000000       0.006
   0.04253455  0.02126727  0.00000000       0.012
   0.06380182  0.02126727  0.00000000       0.012
   0.08506909  0.02126727  0.00000000       0.012
   0.10633636  0.02126727  0.00000000       0.012
   0.12760364  0.02126727  0.00000000       0.012
   0.04253455  0.04253455  0.00000000       0.006
   0.06380182  0.04253455  0.00000000       0.012
   0.08506909  0.04253455  0.00000000       0.012
   0.10633636  0.04253455  0.00000000       0.012
   0.12760364  0.04253455  0.00000000       0.012
   0.06380182  0.06380182  0.00000000       0.006
   0.08506909  0.06380182  0.00000000       0.012
   0.10633636  0.06380182  0.00000000       0.012
   0.12760364  0.06380182  0.00000000       0.012
   0.08506909  0.08506909  0.00000000       0.006
   0.10633636  0.08506909  0.00000000       0.012
   0.12760364  0.08506909  0.00000000       0.012
   0.10633636  0.10633636  0.00000000       0.006
   0.12760364  0.10633636  0.00000000       0.012
   0.12760364  0.12760364  0.00000000       0.006
   0.00000000  0.00000000  0.02303251       0.003
   0.02126727  0.00000000  0.02303251       0.012
   0.04253455  0.00000000  0.02303251       0.012
   0.06380182  0.00000000  0.02303251       0.012
   0.08506909  0.00000000  0.02303251       0.012
   0.10633636  0.00000000  0.02303251       0.012
   0.12760364  0.00000000  0.02303251       0.012
   0.02126727  0.02126727  0.02303251       0.012
   0.04253455  0.02126727  0.02303251       0.024
   0.06380182  0.02126727  0.02303251       0.024
   0.08506909  0.02126727  0.02303251       0.024
   0.10633636  0.02126727  0.02303251       0.024
   0.12760364  0.02126727  0.02303251       0.024
   0.04253455  0.04253455  0.02303251       0.012
   0.06380182  0.04253455  0.02303251       0.024
   0.08506909  0.04253455  0.02303251       0.024
   0.10633636  0.04253455  0.02303251       0.024
   0.12760364  0.04253455  0.02303251       0.024
   0.06380182  0.06380182  0.02303251       0.012
   0.08506909  0.06380182  0.02303251       0.024
   0.10633636  0.06380182  0.02303251       0.024
   0.12760364  0.06380182  0.02303251       0.024
   0.08506909  0.08506909  0.02303251       0.012
   0.10633636  0.08506909  0.02303251       0.024
   0.12760364  0.08506909  0.02303251       0.024
   0.10633636  0.10633636  0.02303251       0.012
   0.12760364  0.10633636  0.02303251       0.024
   0.12760364  0.12760364  0.02303251       0.012
   0.00000000  0.00000000  0.04606503       0.001
   0.02126727  0.00000000  0.04606503       0.006
   0.04253455  0.00000000  0.04606503       0.006
   0.06380182  0.00000000  0.04606503       0.006
   0.08506909  0.00000000  0.04606503       0.006
   0.10633636  0.00000000  0.04606503       0.006
   0.12760364  0.00000000  0.04606503       0.006
   0.02126727  0.02126727  0.04606503       0.006
   0.04253455  0.02126727  0.04606503       0.012
   0.06380182  0.02126727  0.04606503       0.012
   0.08506909  0.02126727  0.04606503       0.012
   0.10633636  0.02126727  0.04606503       0.012
   0.12760364  0.02126727  0.04606503       0.012
   0.04253455  0.04253455  0.04606503       0.006
   0.06380182  0.04253455  0.04606503       0.012
   0.08506909  0.04253455  0.04606503       0.012
   0.10633636  0.04253455  0.04606503       0.012
   0.12760364  0.04253455  0.04606503       0.012
   0.06380182  0.06380182  0.04606503       0.006
   0.08506909  0.06380182  0.04606503       0.012
   0.10633636  0.06380182  0.04606503       0.012
   0.12760364  0.06380182  0.04606503       0.012
   0.08506909  0.08506909  0.04606503       0.006
   0.10633636  0.08506909  0.04606503       0.012
   0.12760364  0.08506909  0.04606503       0.012
   0.10633636  0.10633636  0.04606503       0.006
   0.12760364  0.10633636  0.04606503       0.012
   0.12760364  0.12760364  0.04606503       0.006
 
 k-points in reciprocal lattice and weights: pymatgen with grid density = 8800 / numb
   0.00000000  0.00000000  0.00000000       0.001
   0.07692308  0.00000000  0.00000000       0.006
   0.15384615  0.00000000  0.00000000       0.006
   0.23076923  0.00000000  0.00000000       0.006
   0.30769231  0.00000000  0.00000000       0.006
   0.38461538  0.00000000  0.00000000       0.006
   0.46153846  0.00000000  0.00000000       0.006
   0.07692308  0.07692308  0.00000000       0.006
   0.15384615  0.07692308  0.00000000       0.012
   0.23076923  0.07692308  0.00000000       0.012
   0.30769231  0.07692308  0.00000000       0.012
   0.38461538  0.07692308  0.00000000       0.012
   0.46153846  0.07692308  0.00000000       0.012
   0.15384615  0.15384615  0.00000000       0.006
   0.23076923  0.15384615  0.00000000       0.012
   0.30769231  0.15384615  0.00000000       0.012
   0.38461538  0.15384615  0.00000000       0.012
   0.46153846  0.15384615  0.00000000       0.012
   0.23076923  0.23076923  0.00000000       0.006
   0.30769231  0.23076923  0.00000000       0.012
   0.38461538  0.23076923  0.00000000       0.012
   0.46153846  0.23076923  0.00000000       0.012
   0.30769231  0.30769231  0.00000000       0.006
   0.38461538  0.30769231  0.00000000       0.012
   0.46153846  0.30769231  0.00000000       0.012
   0.38461538  0.38461538  0.00000000       0.006
   0.46153846  0.38461538  0.00000000       0.012
   0.46153846  0.46153846  0.00000000       0.006
   0.00000000  0.00000000  0.25000000       0.003
   0.07692308  0.00000000  0.25000000       0.012
   0.15384615  0.00000000  0.25000000       0.012
   0.23076923  0.00000000  0.25000000       0.012
   0.30769231  0.00000000  0.25000000       0.012
   0.38461538  0.00000000  0.25000000       0.012
   0.46153846  0.00000000  0.25000000       0.012
   0.07692308  0.07692308  0.25000000       0.012
   0.15384615  0.07692308  0.25000000       0.024
   0.23076923  0.07692308  0.25000000       0.024
   0.30769231  0.07692308  0.25000000       0.024
   0.38461538  0.07692308  0.25000000       0.024
   0.46153846  0.07692308  0.25000000       0.024
   0.15384615  0.15384615  0.25000000       0.012
   0.23076923  0.15384615  0.25000000       0.024
   0.30769231  0.15384615  0.25000000       0.024
   0.38461538  0.15384615  0.25000000       0.024
   0.46153846  0.15384615  0.25000000       0.024
   0.23076923  0.23076923  0.25000000       0.012
   0.30769231  0.23076923  0.25000000       0.024
   0.38461538  0.23076923  0.25000000       0.024
   0.46153846  0.23076923  0.25000000       0.024
   0.30769231  0.30769231  0.25000000       0.012
   0.38461538  0.30769231  0.25000000       0.024
   0.46153846  0.30769231  0.25000000       0.024
   0.38461538  0.38461538  0.25000000       0.012
   0.46153846  0.38461538  0.25000000       0.024
   0.46153846  0.46153846  0.25000000       0.012
   0.00000000  0.00000000  0.50000000       0.001
   0.07692308  0.00000000  0.50000000       0.006
   0.15384615  0.00000000  0.50000000       0.006
   0.23076923  0.00000000  0.50000000       0.006
   0.30769231  0.00000000  0.50000000       0.006
   0.38461538  0.00000000  0.50000000       0.006
   0.46153846  0.00000000  0.50000000       0.006
   0.07692308  0.07692308  0.50000000       0.006
   0.15384615  0.07692308  0.50000000       0.012
   0.23076923  0.07692308  0.50000000       0.012
   0.30769231  0.07692308  0.50000000       0.012
   0.38461538  0.07692308  0.50000000       0.012
   0.46153846  0.07692308  0.50000000       0.012
   0.15384615  0.15384615  0.50000000       0.006
   0.23076923  0.15384615  0.50000000       0.012
   0.30769231  0.15384615  0.50000000       0.012
   0.38461538  0.15384615  0.50000000       0.012
   0.46153846  0.15384615  0.50000000       0.012
   0.23076923  0.23076923  0.50000000       0.006
   0.30769231  0.23076923  0.50000000       0.012
   0.38461538  0.23076923  0.50000000       0.012
   0.46153846  0.23076923  0.50000000       0.012
   0.30769231  0.30769231  0.50000000       0.006
   0.38461538  0.30769231  0.50000000       0.012
   0.46153846  0.30769231  0.50000000       0.012
   0.38461538  0.38461538  0.50000000       0.006
   0.46153846  0.38461538  0.50000000       0.012
   0.46153846  0.46153846  0.50000000       0.006
 
 position of ions in fractional coordinates (direct lattice) 
   0.00000000  0.50000000  0.16667652
   0.00000000  0.50000000  0.50000000
   0.00000000  0.50000000  0.83332348
   0.50000000  0.50000000  0.00000000
   0.50000000  0.50000000  0.33329301
   0.50000000  0.50000000  0.66670699
   0.50000000  0.00000000  0.16667652
   0.50000000  0.00000000  0.50000000
   0.50000000  0.00000000  0.83332348
   0.00000000  0.00000000  0.00000000
   0.00000000  0.00000000  0.33330949
   0.00000000  0.00000000  0.66669051
 
 position of ions in cartesian coordinates  (Angst):
   0.00000000  1.80848476  1.80914371
   0.00000000  1.80848476  5.42711036
   0.00000000  1.80848476  9.04507701
   1.80848476  1.80848476  0.00000000
   1.80848476  1.80848476  3.61763585
   1.80848476  1.80848476  7.23658487
   1.80848476  0.00000000  1.80914371
   1.80848476  0.00000000  5.42711036
   1.80848476  0.00000000  9.04507701
   0.00000000  0.00000000  0.00000000
   0.00000000  0.00000000  3.61781474
   0.00000000  0.00000000  7.23640598
 


--------------------------------------------------------------------------------------------------------


 k-point     1 :   0.0000 0.0000 0.0000  plane waves:    3865
 k-point     2 :   0.0769 0.0000 0.0000  plane waves:    3829
 k-point     3 :   0.1538 0.0000 0.0000  plane waves:    3835
 k-point     4 :   0.2308 0.0000 0.0000  plane waves:    3837
 k-point     5 :   0.3077 0.0000 0.0000  plane waves:    3828
 k-point     6 :   0.3846 0.0000 0.0000  plane waves:    3834
 k-point     7 :   0.4615 0.0000 0.0000  plane waves:    3812
 k-point     8 :   0.0769 0.0769 0.0000  plane waves:    3827
 k-point     9 :   0.1538 0.0769 0.0000  plane waves:    3830
 k-point    10 :   0.2308 0.0769 0.0000  plane waves:    3825
 k-point    11 :   0.3077 0.0769 0.0000  plane waves:    3830
 k-point    12 :   0.3846 0.0769 0.0000  plane waves:    3823
 k-point    13 :   0.4615 0.0769 0.0000  plane waves:    3803
 k-point    14 :   0.1538 0.1538 0.0000  plane waves:    3817
 k-point    15 :   0.2308 0.1538 0.0000  plane waves:    3829
 k-point    16 :   0.3077 0.1538 0.0000  plane waves:    3814
 k-point    17 :   0.3846 0.1538 0.0000  plane waves:    3820
 k-point    18 :   0.4615 0.1538 0.0000  plane waves:    3806
 k-point    19 :   0.2308 0.2308 0.0000  plane waves:    3819
 k-point    20 :   0.3077 0.2308 0.0000  plane waves:    3819
 k-point    21 :   0.3846 0.2308 0.0000  plane waves:    3815
 k-point    22 :   0.4615 0.2308 0.0000  plane waves:    3818
 k-point    23 :   0.3077 0.3077 0.0000  plane waves:    3810
 k-point    24 :   0.3846 0.3077 0.0000  plane waves:    3801
 k-point    25 :   0.4615 0.3077 0.0000  plane waves:    3825
 k-point    26 :   0.3846 0.3846 0.0000  plane waves:    3832
 k-point    27 :   0.4615 0.3846 0.0000  plane waves:    3853
 k-point    28 :   0.4615 0.4615 0.0000  plane waves:    3852
 k-point    29 :   0.0000 0.0000 0.2500  plane waves:    3828
 k-point    30 :   0.0769 0.0000 0.2500  plane waves:    3827
 k-point    31 :   0.1538 0.0000 0.2500  plane waves:    3837
 k-point    32 :   0.2308 0.0000 0.2500  plane waves:    3832
 k-point    33 :   0.3077 0.0000 0.2500  plane waves:    3827
 k-point    34 :   0.3846 0.0000 0.2500  plane waves:    3820
 k-point    35 :   0.4615 0.0000 0.2500  plane waves:    3809
 k-point    36 :   0.0769 0.0769 0.2500  plane waves:    3829
 k-point    37 :   0.1538 0.0769 0.2500  plane waves:    3832
 k-point    38 :   0.2308 0.0769 0.2500  plane waves:    3830
 k-point    39 :   0.3077 0.0769 0.2500  plane waves:    3823
 k-point    40 :   0.3846 0.0769 0.2500  plane waves:    3823
 k-point    41 :   0.4615 0.0769 0.2500  plane waves:    3817
 k-point    42 :   0.1538 0.1538 0.2500  plane waves:    3830
 k-point    43 :   0.2308 0.1538 0.2500  plane waves:    3830
 k-point    44 :   0.3077 0.1538 0.2500  plane waves:    3819
 k-point    45 :   0.3846 0.1538 0.2500  plane waves:    3817
 k-point    46 :   0.4615 0.1538 0.2500  plane waves:    3821
 k-point    47 :   0.2308 0.2308 0.2500  plane waves:    3806
 k-point    48 :   0.3077 0.2308 0.2500  plane waves:    3809
 k-point    49 :   0.3846 0.2308 0.2500  plane waves:    3817
 k-point    50 :   0.4615 0.2308 0.2500  plane waves:    3818
 k-point    51 :   0.3077 0.3077 0.2500  plane waves:    3819
 k-point    52 :   0.3846 0.3077 0.2500  plane waves:    3820
 k-point    53 :   0.4615 0.3077 0.2500  plane waves:    3834
 k-point    54 :   0.3846 0.3846 0.2500  plane waves:    3832
 k-point    55 :   0.4615 0.3846 0.2500  plane waves:    3838
 k-point    56 :   0.4615 0.4615 0.2500  plane waves:    3832
 k-point    57 :   0.0000 0.0000 0.5000  plane waves:    3816
 k-point    58 :   0.0769 0.0000 0.5000  plane waves:    3832
 k-point    59 :   0.1538 0.0000 0.5000  plane waves:    3824
 k-point    60 :   0.2308 0.0000 0.5000  plane waves:    3824
 k-point    61 :   0.3077 0.0000 0.5000  plane waves:    3834
 k-point    62 :   0.3846 0.0000 0.5000  plane waves:    3822
 k-point    63 :   0.4615 0.0000 0.5000  plane waves:    3812
 k-point    64 :   0.0769 0.0769 0.5000  plane waves:    3824
 k-point    65 :   0.1538 0.0769 0.5000  plane waves:    3848
 k-point    66 :   0.2308 0.0769 0.5000  plane waves:    3830
 k-point    67 :   0.3077 0.0769 0.5000  plane waves:    3824
 k-point    68 :   0.3846 0.0769 0.5000  plane waves:    3816
 k-point    69 :   0.4615 0.0769 0.5000  plane waves:    3810
 k-point    70 :   0.1538 0.1538 0.5000  plane waves:    3832
 k-point    71 :   0.2308 0.1538 0.5000  plane waves:    3820
 k-point    72 :   0.3077 0.1538 0.5000  plane waves:    3808
 k-point    73 :   0.3846 0.1538 0.5000  plane waves:    3830
 k-point    74 :   0.4615 0.1538 0.5000  plane waves:    3814
 k-point    75 :   0.2308 0.2308 0.5000  plane waves:    3824
 k-point    76 :   0.3077 0.2308 0.5000  plane waves:    3820
 k-point    77 :   0.3846 0.2308 0.5000  plane waves:    3818
 k-point    78 :   0.4615 0.2308 0.5000  plane waves:    3820
 k-point    79 :   0.3077 0.3077 0.5000  plane waves:    3812
 k-point    80 :   0.3846 0.3077 0.5000  plane waves:    3822
 k-point    81 :   0.4615 0.3077 0.5000  plane waves:    3826
 k-point    82 :   0.3846 0.3846 0.5000  plane waves:    3836
 k-point    83 :   0.4615 0.3846 0.5000  plane waves:    3834
 k-point    84 :   0.4615 0.4615 0.5000  plane waves:    3852

 maximum and minimum number of plane-waves per node :      3865     3801

 maximum number of plane-waves:      3865
 maximum index in each direction: 
   IXMAX=    6   IYMAX=    6   IZMAX=   20
   IXMIN=   -7   IYMIN=   -7   IZMIN=  -20


 serial   3D FFT for wavefunctions
 parallel 3D FFT for charge:
    minimum data exchange during FFTs selected (reduces bandwidth)


 total amount of memory used by VASP MPI-rank0   176528. kBytes
=======================================================================

   base      :      30000. kBytes
   nonl-proj :      94414. kBytes
   fftplans  :        888. kBytes
   grid      :       6813. kBytes
   one-center:        373. kBytes
   wavefun   :      44040. kBytes
 
     INWAV:  cpu time      0.0000: real time      0.0000
 Broyden mixing: mesh for mixing (old mesh)
   NGX = 13   NGY = 13   NGZ = 41
  (NGX  = 56   NGY  = 56   NGZ  =168)
  gives a total of   6929 points

 initial charge density was supplied:
 charge density of overlapping atoms calculated
 number of electron     156.0000000 magnetization      23.1990000
 keeping initial charge density in first step


--------------------------------------------------------------------------------------------------------


 Maximum index for augmentation-charges         1093 (set IRDMAX)


--------------------------------------------------------------------------------------------------------


 First call to EWALD:  gamma=   0.340
 Maximum number of real-space cells 4x 4x 2
 Maximum number of reciprocal cells 2x 2x 5

    FEWALD:  cpu time      0.0034: real time      0.0034


--------------------------------------- Ionic step        1  -------------------------------------------




--------------------------------------- Iteration      1(   1)  ---------------------------------------


    POTLOK:  cpu time      0.0263: real time      0.0421
    SETDIJ:  cpu time      0.0081: real time      0.0083
     EDDAV:  cpu time      6.3877: real time      6.4413
 BZINTS: Fermi energy:   24.595035;  156.000000 electrons
         Band energy: 0.697204E+03;  BLOECHL correction:   -0.054214
       DOS:  cpu time      0.1281: real time      0.1295
    --------------------------------------------
      LOOP:  cpu time      6.5503: real time      6.6212

 eigenvalue-minimisations  : 43136
 total energy-change (2. order) : 0.1763202E+04  (-0.8356069E+04)
 number of electron     156.0000000 magnetization      23.1990000
 augmentation part      156.0000000 magnetization      23.1990000

 Free energy of the ion-electron system (eV)
  ---------------------------------------------------
  alpha Z        PSCENC =      1198.52203918
  Ewald energy   TEWEN  =    -18668.36092130
  -Hartree energ DENC   =     -5704.97082068
  -exchange      EXHF   =         0.00000000
  -V(xc)+E(xc)   XCENC  =       660.71377367
  PAW double counting   =     20094.82979655   -20818.83818648
  entropy T*S    EENTRO =         0.00000000
  eigenvalues    EBANDS =       697.20374211
  atomic energy  EATOM  =     24304.10294433
  Solvation  Ediel_sol  =         0.00000000
  ---------------------------------------------------
  free energy    TOTEN  =      1763.20236738 eV

  energy without entropy =     1763.20236738  energy(sigma->0) =     1763.20236738


--------------------------------------------------------------------------------------------------------




--------------------------------------- Iteration      1(   2)  ---------------------------------------


     EDDAV:  cpu time      5.7760: real time      5.8250
 BZINTS: Fermi energy:   13.537174;  156.000000 electrons
         Band energy:-0.105953E+04;  BLOECHL correction:   -0.032554
       DOS:  cpu time      0.1283: real time      0.1293
    --------------------------------------------
      LOOP:  cpu time      5.9043: real time      5.9543

 eigenvalue-minimisations  : 43008
 total energy-change (2. order) :-0.1756737E+04  (-0.1664436E+04)
 number of electron     156.0000000 magnetization      23.1990000
 augmentation part      156.0000000 magnetization      23.1990000

 Free energy of the ion-electron system (eV)
  ---------------------------------------------------
  alpha Z        PSCENC =      1198.52203918
  Ewald energy   TEWEN  =    -18668.36092130
  -Hartree energ DENC   =     -5704.97082068
  -exchange      EXHF   =         0.00000000
  -V(xc)+E(xc)   XCENC  =       660.71377367
  PAW double counting   =     20094.82979655   -20818.83818648
  entropy T*S    EENTRO =         0.00000000
  eigenvalues    EBANDS =     -1059.53280502
  atomic energy  EATOM  =     24304.10294433
  Solvation  Ediel_sol  =         0.00000000
  ---------------------------------------------------
  free energy    TOTEN  =         6.46582025 eV

  energy without entropy =        6.46582025  energy(sigma->0) =        6.46582025


--------------------------------------------------------------------------------------------------------




--------------------------------------- Iteration      1(   3)  ---------------------------------------


     EDDAV:  cpu time      6.5954: real time      6.6468
 BZINTS: Fermi energy:   12.956529;  156.000000 electrons
         Band energy:-0.116825E+04;  BLOECHL correction:   -0.068426
       DOS:  cpu time      0.1288: real time      0.1298
    --------------------------------------------
      LOOP:  cpu time      6.7242: real time      6.7765

 eigenvalue-minimisations  : 50528
 total energy-change (2. order) :-0.1087172E+03  (-0.1072270E+03)
 number of electron     156.0000000 magnetization      23.1990000
 augmentation part      156.0000000 magnetization      23.1990000

 Free energy of the ion-electron system (eV)
  ---------------------------------------------------
  alpha Z        PSCENC =      1198.52203918
  Ewald energy   TEWEN  =    -18668.36092130
  -Hartree energ DENC   =     -5704.97082068
  -exchange      EXHF   =         0.00000000
  -V(xc)+E(xc)   XCENC  =       660.71377367
  PAW double counting   =     20094.82979655   -20818.83818648
  entropy T*S    EENTRO =         0.00000000
  eigenvalues    EBANDS =     -1168.25004291
  atomic energy  EATOM  =     24304.10294433
  Solvation  Ediel_sol  =         0.00000000
  ---------------------------------------------------
  free energy    TOTEN  =      -102.25141764 eV

  energy without entropy =     -102.25141764  energy(sigma->0) =     -102.25141764


--------------------------------------------------------------------------------------------------------




--------------------------------------- Iteration      1(   4)  ---------------------------------------


     EDDAV:  cpu time      6.0325: real time      6.0797
 BZINTS: Fermi energy:   12.951875;  156.000000 electrons
         Band energy:-0.116974E+04;  BLOECHL correction:   -0.068693
       DOS:  cpu time      0.1303: real time      0.1313
    --------------------------------------------
      LOOP:  cpu time      6.1628: real time      6.2110

 eigenvalue-minimisations  : 46208
 total energy-change (2. order) :-0.1492294E+01  (-0.1491801E+01)
 number of electron     156.0000000 magnetization      23.1990000
 augmentation part      156.0000000 magnetization      23.1990000

 Free energy of the ion-electron system (eV)
  ---------------------------------------------------
  alpha Z        PSCENC =      1198.52203918
  Ewald energy   TEWEN  =    -18668.36092130
  -Hartree energ DENC   =     -5704.97082068
  -exchange      EXHF   =         0.00000000
  -V(xc)+E(xc)   XCENC  =       660.71377367
  PAW double counting   =     20094.82979655   -20818.83818648
  entropy T*S    EENTRO =         0.00000000
  eigenvalues    EBANDS =     -1169.74233692
  atomic energy  EATOM  =     24304.10294433
  Solvation  Ediel_sol  =         0.00000000
  ---------------------------------------------------
  free energy    TOTEN  =      -103.74371165 eV

  energy without entropy =     -103.74371165  energy(sigma->0) =     -103.74371165


--------------------------------------------------------------------------------------------------------




--------------------------------------- Iteration      1(   5)  ---------------------------------------


     EDDAV:  cpu time      7.0774: real time      7.1324
 BZINTS: Fermi energy:   12.951830;  156.000000 electrons
         Band energy:-0.116977E+04;  BLOECHL correction:   -0.068693
       DOS:  cpu time      0.1300: real time      0.1309
    CHARGE:  cpu time      0.1530: real time      0.1544
    MIXING:  cpu time      0.0067: real time      0.0070
    --------------------------------------------
      LOOP:  cpu time      7.3671: real time      7.4248

 eigenvalue-minimisations  : 52896
 total energy-change (2. order) :-0.2630191E-01  (-0.2630133E-01)
 number of electron     155.9999673 magnetization      20.8691875
 augmentation part       79.3602081 magnetization      16.0900214

 Broyden mixing:
  rms(total) = 0.43430E+01    rms(broyden)= 0.43424E+01
  rms(prec ) = 0.47646E+01
  weight for this iteration     100.00

 Free energy of the ion-electron system (eV)
  ---------------------------------------------------
  alpha Z        PSCENC =      1198.52203918
  Ewald energy   TEWEN  =    -18668.36092130
  -Hartree energ DENC   =     -5704.97082068
  -exchange      EXHF   =         0.00000000
  -V(xc)+E(xc)   XCENC  =       660.71377367
  PAW double counting   =     20094.82979655   -20818.83818648
  entropy T*S    EENTRO =         0.00000000
  eigenvalues    EBANDS =     -1169.76863884
  atomic energy  EATOM  =     24304.10294433
  Solvation  Ediel_sol  =         0.00000000
  ---------------------------------------------------
  free energy    TOTEN  =      -103.77001357 eV

  energy without entropy =     -103.77001357  energy(sigma->0) =     -103.77001357


--------------------------------------------------------------------------------------------------------




--------------------------------------- Iteration      1(   6)  ---------------------------------------


    POTLOK:  cpu time      0.0395: real time      0.0440
    SETDIJ:  cpu time      0.0081: real time      0.0082
     EDDAV:  cpu time      6.3904: real time      6.4345
 BZINTS: Fermi energy:   10.358276;  156.000000 electrons
         Band energy:-0.155649E+04;  BLOECHL correction:   -0.078779
       DOS:  cpu time      0.1359: real time      0.1370
    CHARGE:  cpu time      0.1459: real time      0.1467
    MIXING:  cpu time      0.0030: real time      0.0033
    --------------------------------------------
      LOOP:  cpu time      6.7229: real time      6.7737

 eigenvalue-minimisations  : 48544
 total energy-change (2. order) : 0.5394405E+01  (-0.5887944E+01)
 number of electron     155.9999643 magnetization      19.9643785
 augmentation part       87.3975899 magnetization      15.4196362

 Broyden mixing:
  rms(total) = 0.30321E+01    rms(broyden)= 0.30317E+01
  rms(prec ) = 0.37501E+01
  weight for this iteration     100.00

 eigenvalues of (default mixing * dielectric matrix)
  average eigenvalue GAMMA=   0.5813
  0.5813

 Free energy of the ion-electron system (eV)
  ---------------------------------------------------
  alpha Z        PSCENC =      1198.52203918
  Ewald energy   TEWEN  =    -18668.36092130
  -Hartree energ DENC   =     -5314.84244639
  -exchange      EXHF   =         0.00000000
  -V(xc)+E(xc)   XCENC  =       642.89304497
  PAW double counting   =     20802.07304688   -21506.26925428
  entropy T*S    EENTRO =         0.00000000
  eigenvalues    EBANDS =     -1556.49406235
  atomic energy  EATOM  =     24304.10294433
  Solvation  Ediel_sol  =         0.00000000
  ---------------------------------------------------
  free energy    TOTEN  =       -98.37560895 eV

  energy without entropy =      -98.37560895  energy(sigma->0) =      -98.37560895


--------------------------------------------------------------------------------------------------------




--------------------------------------- Iteration      1(   7)  ---------------------------------------


    POTLOK:  cpu time      0.0426: real time      0.0434
    SETDIJ:  cpu time      0.0080: real time      0.0081
     EDDAV:  cpu time      6.5609: real time      6.6074
 BZINTS: Fermi energy:   11.701979;  156.000000 electrons
         Band energy:-0.136565E+04;  BLOECHL correction:   -0.046049
       DOS:  cpu time      0.1356: real time      0.1365
    CHARGE:  cpu time      0.1472: real time      0.1480
    MIXING:  cpu time      0.0031: real time      0.0032
    --------------------------------------------
      LOOP:  cpu time      6.8974: real time      6.9467

 eigenvalue-minimisations  : 49856
 total energy-change (2. order) : 0.1700972E+01  (-0.9187617E+01)
 number of electron     155.9999665 magnetization      18.9885309
 augmentation part       82.8524025 magnetization      14.1276544

 Broyden mixing:
  rms(total) = 0.24727E+01    rms(broyden)= 0.24724E+01
  rms(prec ) = 0.28991E+01
  weight for this iteration     100.00

 eigenvalues of (default mixing * dielectric matrix)
  average eigenvalue GAMMA=   0.7378
  1.1366  0.3391

 Free energy of the ion-electron system (eV)
  ---------------------------------------------------
  alpha Z        PSCENC =      1198.52203918
  Ewald energy   TEWEN  =    -18668.36092130
  -Hartree energ DENC   =     -5474.17632588
  -exchange      EXHF   =         0.00000000
  -V(xc)+E(xc)   XCENC  =       648.56822234
  PAW double counting   =     21528.20873950   -22267.88745583
  entropy T*S    EENTRO =         0.00000000
  eigenvalues    EBANDS =     -1365.65187902
  atomic energy  EATOM  =     24304.10294433
  Solvation  Ediel_sol  =         0.00000000
  ---------------------------------------------------
  free energy    TOTEN  =       -96.67463667 eV

  energy without entropy =      -96.67463667  energy(sigma->0) =      -96.67463667


--------------------------------------------------------------------------------------------------------




--------------------------------------- Iteration      1(   8)  ---------------------------------------


    POTLOK:  cpu time      0.0397: real time      0.0437
    SETDIJ:  cpu time      0.0083: real time      0.0083
     EDDAV:  cpu time      6.9420: real time      6.9882
 BZINTS: Fermi energy:   11.201638;  156.000000 electrons
         Band energy:-0.142749E+04;  BLOECHL correction:   -0.037276
       DOS:  cpu time      0.1358: real time      0.1367
    CHARGE:  cpu time      0.1483: real time      0.1492
    MIXING:  cpu time      0.0019: real time      0.0019
    --------------------------------------------
      LOOP:  cpu time      7.2760: real time      7.3281

 eigenvalue-minimisations  : 51968
 total energy-change (2. order) : 0.1832256E+01  (-0.2153162E+01)
 number of electron     155.9999657 magnetization      18.8389287
 augmentation part       84.2463335 magnetization      14.5091336

 Broyden mixing:
  rms(total) = 0.22132E+01    rms(broyden)= 0.22130E+01
  rms(prec ) = 0.34845E+01
  weight for this iteration     100.00

 eigenvalues of (default mixing * dielectric matrix)
  average eigenvalue GAMMA=   0.6147
  1.2113  0.3163  0.3163

 Free energy of the ion-electron system (eV)
  ---------------------------------------------------
  alpha Z        PSCENC =      1198.52203918
  Ewald energy   TEWEN  =    -18668.36092130
  -Hartree energ DENC   =     -5401.35589816
  -exchange      EXHF   =         0.00000000
  -V(xc)+E(xc)   XCENC  =       646.24821855
  PAW double counting   =     22021.89632736   -22768.40352436
  entropy T*S    EENTRO =         0.00000000
  eigenvalues    EBANDS =     -1427.49156667
  atomic energy  EATOM  =     24304.10294433
  Solvation  Ediel_sol  =         0.00000000
  ---------------------------------------------------
  free energy    TOTEN  =       -94.84238107 eV

  energy without entropy =      -94.84238107  energy(sigma->0) =      -94.84238107


--------------------------------------------------------------------------------------------------------




--------------------------------------- Iteration      1(   9)  ---------------------------------------


    POTLOK:  cpu time      0.0378: real time      0.0437
    SETDIJ:  cpu time      0.0086: real time      0.0086
     EDDAV:  cpu time      6.9225: real time      6.9684
 BZINTS: Fermi energy:   11.132169;  156.000000 electrons
         Band energy:-0.143311E+04;  BLOECHL correction:   -0.044454
       DOS:  cpu time      0.1346: real time      0.1359
    CHARGE:  cpu time      0.2047: real time      0.2058
    MIXING:  cpu time      0.0030: real time      0.0030
    --------------------------------------------
      LOOP:  cpu time      7.3113: real time      7.3655

 eigenvalue-minimisations  : 52096
 total energy-change (2. order) : 0.1149662E+01  (-0.2276563E+01)
 number of electron     155.9999660 magnetization      18.4788307
 augmentation part       84.4244613 magnetization      14.0871631

 Broyden mixing:
  rms(total) = 0.18194E+01    rms(broyden)= 0.18191E+01
  rms(prec ) = 0.30379E+01
  weight for this iteration     100.00

 eigenvalues of (default mixing * dielectric matrix)
  average eigenvalue GAMMA=   0.6300
  1.3890  0.6603  0.3773  0.0934

 Free energy of the ion-electron system (eV)
  ---------------------------------------------------
  alpha Z        PSCENC =      1198.52203918
  Ewald energy   TEWEN  =    -18668.36092130
  -Hartree energ DENC   =     -5393.04937970
  -exchange      EXHF   =         0.00000000
  -V(xc)+E(xc)   XCENC  =       645.96567107
  PAW double counting   =     22089.94739777   -22837.70654958
  entropy T*S    EENTRO =         0.00000000
  eigenvalues    EBANDS =     -1433.11392045
  atomic energy  EATOM  =     24304.10294433
  Solvation  Ediel_sol  =         0.00000000
  ---------------------------------------------------
  free energy    TOTEN  =       -93.69271867 eV

  energy without entropy =      -93.69271867  energy(sigma->0) =      -93.69271867


--------------------------------------------------------------------------------------------------------




--------------------------------------- Iteration      1(  10)  ---------------------------------------


    POTLOK:  cpu time      0.0388: real time      0.0439
    SETDIJ:  cpu time      0.0079: real time      0.0079
     EDDAV:  cpu time      6.9690: real time      7.0148
 BZINTS: Fermi energy:   11.009896;  156.000000 electrons
         Band energy:-0.144741E+04;  BLOECHL correction:   -0.047556
       DOS:  cpu time      0.1348: real time      0.1358
    CHARGE:  cpu time      0.1481: real time      0.1490
    MIXING:  cpu time      0.0019: real time      0.0020
    --------------------------------------------
      LOOP:  cpu time      7.3007: real time      7.3534

 eigenvalue-minimisations  : 52352
 total energy-change (2. order) : 0.2125794E+00  (-0.1718254E+01)
 number of electron     155.9999656 magnetization      18.3895376
 augmentation part       84.7961866 magnetization      14.0379823

 Broyden mixing:
  rms(total) = 0.17665E+01    rms(broyden)= 0.17662E+01
  rms(prec ) = 0.25838E+01
  weight for this iteration     100.00

 eigenvalues of (default mixing * dielectric matrix)
  average eigenvalue GAMMA=   0.5957
  1.5238  0.7845  0.3556  0.2262  0.0884

 Free energy of the ion-electron system (eV)
  ---------------------------------------------------
  alpha Z        PSCENC =      1198.52203918
  Ewald energy   TEWEN  =    -18668.36092130
  -Hartree energ DENC   =     -5373.41095384
  -exchange      EXHF   =         0.00000000
  -V(xc)+E(xc)   XCENC  =       645.45601194
  PAW double counting   =     22303.33826457   -23055.71420294
  entropy T*S    EENTRO =         0.00000000
  eigenvalues    EBANDS =     -1447.41332123
  atomic energy  EATOM  =     24304.10294433
  Solvation  Ediel_sol  =         0.00000000
  ---------------------------------------------------
  free energy    TOTEN  =       -93.48013929 eV

  energy without entropy =      -93.48013929  energy(sigma->0) =      -93.48013929


--------------------------------------------------------------------------------------------------------




--------------------------------------- Iteration      1(  11)  ---------------------------------------


    POTLOK:  cpu time      0.0382: real time      0.0439
    SETDIJ:  cpu time      0.0083: real time      0.0084
     EDDAV:  cpu time      6.8099: real time      6.8564
 BZINTS: Fermi energy:   10.934264;  156.000000 electrons
         Band energy:-0.144926E+04;  BLOECHL correction:   -0.053994
       DOS:  cpu time      0.1350: real time      0.1359
    CHARGE:  cpu time      0.1470: real time      0.1481
    MIXING:  cpu time      0.0020: real time      0.0020
    --------------------------------------------
      LOOP:  cpu time      7.1405: real time      7.1947

 eigenvalue-minimisations  : 51328
 total energy-change (2. order) : 0.8176863E+00  (-0.1237404E+01)
 number of electron     155.9999658 magnetization      18.4873361
 augmentation part       84.9196217 magnetization      13.9723564

 Broyden mixing:
  rms(total) = 0.84281E+00    rms(broyden)= 0.84246E+00
  rms(prec ) = 0.10885E+01
  weight for this iteration     100.00

 eigenvalues of (default mixing * dielectric matrix)
  average eigenvalue GAMMA=   0.5789
  1.5505  0.9504  0.3888  0.3888  0.1114  0.0834

 Free energy of the ion-electron system (eV)
  ---------------------------------------------------
  alpha Z        PSCENC =      1198.52203918
  Ewald energy   TEWEN  =    -18668.36092130
  -Hartree energ DENC   =     -5368.73082491
  -exchange      EXHF   =         0.00000000
  -V(xc)+E(xc)   XCENC  =       645.37577240
  PAW double counting   =     22383.21224813   -23137.52559366
  entropy T*S    EENTRO =         0.00000000
  eigenvalues    EBANDS =     -1449.25811718
  atomic energy  EATOM  =     24304.10294433
  Solvation  Ediel_sol  =         0.00000000
  ---------------------------------------------------
  free energy    TOTEN  =       -92.66245301 eV

  energy without entropy =      -92.66245301  energy(sigma->0) =      -92.66245301


--------------------------------------------------------------------------------------------------------




--------------------------------------- Iteration      1(  12)  ---------------------------------------


    POTLOK:  cpu time      0.0425: real time      0.0434
    SETDIJ:  cpu time      0.0086: real time      0.0086
     EDDAV:  cpu time      6.4235: real time      6.4678
 BZINTS: Fermi energy:   10.938593;  156.000000 electrons
         Band energy:-0.144738E+04;  BLOECHL correction:   -0.057621
       DOS:  cpu time      0.1356: real time      0.1365
    CHARGE:  cpu time      0.1463: real time      0.1471
    MIXING:  cpu time      0.0020: real time      0.0020
    --------------------------------------------
      LOOP:  cpu time      6.7584: real time      6.8054

 eigenvalue-minimisations  : 49632
 total energy-change (2. order) : 0.1074928E+00  (-0.1241657E+00)
 number of electron     155.9999659 magnetization      18.5764970
 augmentation part       84.8953508 magnetization      14.0372386

 Broyden mixing:
  rms(total) = 0.57360E+00    rms(broyden)= 0.57353E+00
  rms(prec ) = 0.67011E+00
  weight for this iteration     100.00

 eigenvalues of (default mixing * dielectric matrix)
  average eigenvalue GAMMA=   0.5329
  1.5627  1.0000  0.3569  0.3569  0.2504  0.0860  0.1178

 Free energy of the ion-electron system (eV)
  ---------------------------------------------------
  alpha Z        PSCENC =      1198.52203918
  Ewald energy   TEWEN  =    -18668.36092130
  -Hartree energ DENC   =     -5368.41205003
  -exchange      EXHF   =         0.00000000
  -V(xc)+E(xc)   XCENC  =       645.66932926
  PAW double counting   =     22468.26385941   -23224.95888161
  entropy T*S    EENTRO =         0.00000000
  eigenvalues    EBANDS =     -1447.38127945
  atomic energy  EATOM  =     24304.10294433
  Solvation  Ediel_sol  =         0.00000000
  ---------------------------------------------------
  free energy    TOTEN  =       -92.55496021 eV

  energy without entropy =      -92.55496021  energy(sigma->0) =      -92.55496021


--------------------------------------------------------------------------------------------------------




--------------------------------------- Iteration      1(  13)  ---------------------------------------


    POTLOK:  cpu time      0.0373: real time      0.0436
    SETDIJ:  cpu time      0.0082: real time      0.0082
     EDDAV:  cpu time      6.4953: real time      6.5415
 BZINTS: Fermi energy:   10.944370;  156.000000 electrons
         Band energy:-0.144676E+04;  BLOECHL correction:   -0.060104
       DOS:  cpu time      0.1354: real time      0.1363
    CHARGE:  cpu time      0.1424: real time      0.1436
    MIXING:  cpu time      0.0021: real time      0.0021
    --------------------------------------------
      LOOP:  cpu time      6.8206: real time      6.8753

 eigenvalue-minimisations  : 50080
 total energy-change (2. order) : 0.3496173E-01  (-0.5295192E-01)
 number of electron     155.9999659 magnetization      18.8125777
 augmentation part       84.8880426 magnetization      14.2399426

 Broyden mixing:
  rms(total) = 0.45528E+00    rms(broyden)= 0.45522E+00
  rms(prec ) = 0.49625E+00
  weight for this iteration     100.00

 eigenvalues of (default mixing * dielectric matrix)
  average eigenvalue GAMMA=   0.5165
  1.5815  1.0121  0.4291  0.4291  0.3524  0.1333  0.0845  0.1102

 Free energy of the ion-electron system (eV)
  ---------------------------------------------------
  alpha Z        PSCENC =      1198.52203918
  Ewald energy   TEWEN  =    -18668.36092130
  -Hartree energ DENC   =     -5368.39677823
  -exchange      EXHF   =         0.00000000
  -V(xc)+E(xc)   XCENC  =       645.80105800
  PAW double counting   =     22497.20464513   -23254.63344813
  entropy T*S    EENTRO =         0.00000000
  eigenvalues    EBANDS =     -1446.75953745
  atomic energy  EATOM  =     24304.10294433
  Solvation  Ediel_sol  =         0.00000000
  ---------------------------------------------------
  free energy    TOTEN  =       -92.51999847 eV

  energy without entropy =      -92.51999847  energy(sigma->0) =      -92.51999847


--------------------------------------------------------------------------------------------------------




--------------------------------------- Iteration      1(  14)  ---------------------------------------


    POTLOK:  cpu time      0.0431: real time      0.0440
    SETDIJ:  cpu time      0.0082: real time      0.0082
     EDDAV:  cpu time      6.6503: real time      6.6961
 BZINTS: Fermi energy:   10.941514;  156.000000 electrons
[...]
    113      26.8575      0.00000
    114      27.2742      0.00000
    115      27.2778      0.00000
    116      27.6825      0.00000
    117      27.6857      0.00000
    118      28.6156      0.00000
    119      28.6192      0.00000
    120      29.0447      0.00000
    121      29.0472      0.00000
    122      29.0960      0.00000
    123      29.6100      0.00000
    124      30.9409      0.00000
    125      30.9413      0.00000
    126      31.3401      0.00000
    127      31.3406      0.00000
    128      32.1993      0.00000


--------------------------------------------------------------------------------------------------------


 soft charge-density along one line, spin component           1
         0         1         2         3         4         5         6         7         8         9
 total charge-density along one line
 
 soft charge-density along one line, spin component           2
         0         1         2         3         4         5         6         7         8         9
 total charge-density along one line
 
 pseudopotential strength for first ion, spin component:           1
-44.021  -0.000  -0.000   7.224   0.000   0.000  -0.000  -0.000
 -0.000 -44.022  -0.000   0.000   7.224   0.000   0.000   0.000
 -0.000  -0.000 -43.902   0.000   0.000   7.176   0.000   0.000
  7.224   0.000   0.000   5.723   0.000   0.000   0.000   0.000
  0.000   7.224   0.000   0.000   5.723   0.000  -0.000  -0.000
  0.000   0.000   7.176   0.000   0.000   5.733  -0.000  -0.000
 -0.000   0.000   0.000   0.000  -0.000  -0.000  -1.261  -0.000
 -0.000   0.000   0.000   0.000  -0.000  -0.000  -0.000  -1.348
 -0.000   0.000   0.000   0.000   0.000  -0.000   0.000  -0.000
  0.000  -0.000  -0.000  -0.000   0.000   0.000  -0.000  -0.000
 -0.000   0.000  -0.000   0.000  -0.000   0.000  -0.000   0.000
 -0.000   0.000   0.000   0.000  -0.000  -0.000  -1.788  -0.000
 -0.000   0.000   0.000   0.000  -0.000  -0.000  -0.000  -1.873
 -0.000   0.000   0.000   0.000   0.000  -0.000   0.000  -0.000
  0.000  -0.000  -0.000  -0.000   0.000   0.000  -0.000  -0.000
 -0.000   0.000  -0.000   0.000  -0.000   0.000  -0.000   0.000
 -0.000   0.000   0.000  -0.000  -0.000   0.000   0.000   0.000
 -0.000   0.000   0.000  -0.000  -0.000   0.000   0.000   0.000
 pseudopotential strength for first ion, spin component:           2
-41.877  -0.000  -0.000   6.319   0.000   0.000  -0.000   0.000
 -0.000 -41.879  -0.000   0.000   6.320   0.000  -0.000   0.000
 -0.000  -0.000 -41.779   0.000   0.000   6.279   0.000  -0.000
  6.319   0.000   0.000   5.972   0.000   0.000   0.000  -0.000
  0.000   6.320   0.000   0.000   5.972   0.000   0.000  -0.000
  0.000   0.000   6.279   0.000   0.000   5.981  -0.000   0.000
 -0.000  -0.000   0.000   0.000   0.000  -0.000   0.442  -0.000
  0.000   0.000  -0.000  -0.000  -0.000   0.000  -0.000   0.372
 -0.000  -0.000   0.000   0.000   0.000  -0.000   0.000  -0.000
 -0.000  -0.000   0.000   0.000   0.000  -0.000  -0.000  -0.000
 -0.000  -0.000  -0.000   0.000   0.000   0.000  -0.000   0.000
 -0.000  -0.000   0.000   0.000   0.000  -0.000  -0.113  -0.000
  0.000   0.000  -0.000  -0.000  -0.000   0.000  -0.000  -0.182
 -0.000  -0.000   0.000   0.000   0.000  -0.000   0.000  -0.000
 -0.000   0.000   0.000   0.000   0.000  -0.000  -0.000  -0.000
 -0.000  -0.000  -0.000   0.000   0.000   0.000  -0.000   0.000
 -0.000  -0.000   0.000  -0.000   0.000   0.000   0.000   0.000
 -0.000  -0.000   0.000  -0.000  -0.000   0.000   0.000   0.000
 total augmentation occupancy for first ion, spin component:           1
  1.992  -0.000   0.000  -0.024   0.000   0.000   0.000  -0.000   0.000   0.000   0.000   0.000   0.000   0.000   0.000  -0.000
 -0.000   1.992   0.000   0.000  -0.024   0.000  -0.000   0.000  -0.000   0.000   0.000  -0.000  -0.000   0.000  -0.000  -0.000
  0.000   0.000   1.992   0.000   0.000  -0.024  -0.000   0.000   0.000  -0.000  -0.000   0.000   0.000   0.000   0.000  -0.000
 -0.024   0.000   0.000   0.211   0.000  -0.000  -0.000  -0.001   0.000   0.000  -0.000  -0.000   0.000   0.000   0.000   0.000
  0.000  -0.024   0.000   0.000   0.211   0.000   0.000   0.000   0.000   0.000   0.000   0.000   0.000  -0.000   0.000  -0.000
  0.000   0.000  -0.024  -0.000   0.000   0.188   0.000  -0.000  -0.000  -0.000   0.000   0.000  -0.000   0.000   0.000  -0.000
  0.000  -0.000  -0.000  -0.000   0.000   0.000   3.083  -0.000   0.000   0.000   0.000  -1.920  -0.000   0.000   0.000   0.000
 -0.000   0.000   0.000  -0.001   0.000  -0.000  -0.000   3.210  -0.000   0.000   0.000   0.000  -2.419   0.000   0.000  -0.000
  0.000  -0.000   0.000   0.000   0.000  -0.000   0.000  -0.000   3.544  -0.000   0.170   0.000  -0.000  -2.252   0.000  -0.086
  0.000   0.000  -0.000   0.000   0.000  -0.000   0.000   0.000  -0.000   3.074   0.000   0.000   0.000   0.000  -1.913   0.000
  0.000   0.000  -0.000  -0.000   0.000   0.000   0.000   0.000   0.170   0.000   3.349  -0.000  -0.000  -0.086   0.000  -2.153
  0.000  -0.000   0.000  -0.000   0.000   0.000  -1.920   0.000   0.000   0.000  -0.000   2.175  -0.000   0.000   0.000  -0.000
  0.000  -0.000   0.000   0.000   0.000  -0.000  -0.000  -2.419  -0.000   0.000  -0.000  -0.000   2.911   0.000   0.000  -0.000
  0.000   0.000   0.000   0.000  -0.000   0.000   0.000   0.000  -2.252   0.000  -0.086   0.000   0.000   2.242   0.000   0.013
  0.000  -0.000   0.000   0.000   0.000   0.000   0.000   0.000   0.000  -1.913   0.000   0.000   0.000   0.000   2.171  -0.000
 -0.000  -0.000  -0.000   0.000  -0.000  -0.000   0.000  -0.000  -0.086   0.000  -2.153  -0.000  -0.000   0.013  -0.000   2.227
  0.000   0.000   0.000   0.000   0.000   0.000   0.000   0.000  -0.129   0.000   0.217  -0.000   0.000   0.099  -0.000  -0.167
 -0.000  -0.000   0.000   0.000  -0.000   0.000   0.000   0.000   0.008  -0.000  -0.014   0.000   0.000  -0.005   0.000   0.009
 total augmentation occupancy for first ion, spin component:           2
 -0.002   0.000   0.000  -0.009   0.000  -0.000   0.000   0.000   0.000  -0.000   0.000   0.000  -0.000  -0.000   0.000  -0.000
  0.000  -0.002   0.000   0.000  -0.009   0.000  -0.000   0.000   0.000  -0.000  -0.000  -0.000  -0.000  -0.000   0.000   0.000
  0.000   0.000  -0.002   0.000   0.000  -0.009  -0.000   0.000   0.000   0.000  -0.000   0.000   0.000   0.000  -0.000   0.000
 -0.009   0.000   0.000  -0.005  -0.000   0.000   0.000  -0.001  -0.000  -0.000  -0.000   0.000   0.000  -0.000   0.000   0.000
  0.000  -0.009   0.000  -0.000  -0.005   0.000   0.000   0.000   0.000   0.000   0.000  -0.000   0.000  -0.000   0.000  -0.000
 -0.000   0.000  -0.009   0.000   0.000  -0.010   0.000   0.000  -0.000  -0.000   0.000  -0.000   0.000   0.000  -0.000   0.000
  0.000  -0.000  -0.000   0.000   0.000   0.000   2.338  -0.000   0.000   0.000   0.000  -1.035  -0.000   0.000   0.000   0.000
  0.000   0.000   0.000  -0.001   0.000   0.000  -0.000   1.983   0.000   0.000   0.000  -0.000  -0.721  -0.000  -0.000   0.000
  0.000   0.000   0.000  -0.000   0.000  -0.000   0.000   0.000   2.646  -0.000   0.085  -0.000  -0.000  -1.118   0.000  -0.091
 -0.000  -0.000   0.000  -0.000   0.000  -0.000   0.000   0.000  -0.000   2.327   0.000   0.000  -0.000   0.000  -1.029  -0.000
  0.000  -0.000  -0.000  -0.000   0.000   0.000   0.000   0.000   0.085   0.000   2.547   0.000   0.000  -0.091   0.000  -1.014
  0.000  -0.000   0.000   0.000  -0.000  -0.000  -1.035  -0.000  -0.000   0.000   0.000   0.248  -0.000   0.000   0.000   0.000
 -0.000  -0.000   0.000   0.000   0.000   0.000  -0.000  -0.721  -0.000  -0.000   0.000  -0.000  -0.022  -0.000   0.000   0.000
 -0.000  -0.000   0.000  -0.000  -0.000   0.000   0.000  -0.000  -1.118   0.000  -0.091   0.000  -0.000   0.318   0.000   0.104
  0.000   0.000  -0.000   0.000   0.000  -0.000   0.000  -0.000   0.000  -1.029   0.000   0.000   0.000   0.000   0.244   0.000
 -0.000   0.000   0.000   0.000  -0.000   0.000   0.000   0.000  -0.091  -0.000  -1.014   0.000   0.000   0.104   0.000   0.198
 -0.000  -0.000   0.000   0.000   0.000   0.000   0.000   0.000  -0.032   0.000   0.050   0.000  -0.000   0.032  -0.000  -0.051
  0.000   0.000   0.000   0.000   0.000   0.000  -0.000   0.000   0.003  -0.000  -0.005   0.000   0.000  -0.001  -0.000   0.001


------------------------ aborting loop because EDIFF is reached ----------------------------------------





 total charge

# of ion       s       p       d       tot
------------------------------------------
    1        0.375   6.383   6.094  12.852
    2        0.375   6.383   6.093  12.850
    3        0.375   6.383   6.094  12.852
    4        0.375   6.383   6.094  12.852
    5        0.375   6.383   6.094  12.852
    6        0.375   6.383   6.094  12.852
    7        0.375   6.383   6.094  12.852
    8        0.375   6.383   6.093  12.850
    9        0.375   6.383   6.094  12.852
   10        0.814   0.822   8.078   9.713
   11        0.814   0.822   8.078   9.713
   12        0.814   0.822   8.078   9.713
--------------------------------------------------
tot          5.815  59.913  79.076 144.804



 magnetization (x)

# of ion       s       p       d       tot
------------------------------------------
    1       -0.004  -0.015   2.501   2.482
    2       -0.004  -0.015   2.507   2.488
    3       -0.004  -0.015   2.501   2.482
    4       -0.003  -0.015   2.505   2.487
    5       -0.003  -0.015   2.498   2.479
    6       -0.003  -0.015   2.498   2.479
    7       -0.004  -0.015   2.501   2.482
    8       -0.004  -0.015   2.507   2.488
    9       -0.004  -0.015   2.501   2.482
   10       -0.039  -0.099   0.382   0.244
   11       -0.039  -0.100   0.384   0.245
   12       -0.039  -0.100   0.384   0.245
--------------------------------------------------
tot         -0.148  -0.436  23.669  23.085
 
    CHARGE:  cpu time      0.1426: real time      0.1435
    FORLOC:  cpu time      0.0018: real time      0.0018
    FORNL :  cpu time      0.6645: real time      0.6685
    STRESS:  cpu time      4.0305: real time      4.0620
    FORCOR:  cpu time      0.0204: real time      0.0205
    FORHAR:  cpu time      0.0026: real time      0.0026
    MIXING:  cpu time      0.0128: real time      0.0129
    OFIELD:  cpu time      0.0018: real time      0.0018

  FORCE on cell =-STRESS in cart. coord.  units (eV):
  Direction    XX          YY          ZZ          XY          YZ          ZX
  --------------------------------------------------------------------------------------
  Alpha Z  1198.52204  1198.52204  1198.52204
  Ewald   -6222.67824 -6222.67824 -6223.02376     0.00000     0.00000    -0.00000
  Hartree  1790.18970  1790.18970  1789.89745    -0.00000    -0.00000    -0.00000
  E(xc)    -947.49013  -947.49013  -947.49228    -0.00000     0.00000    -0.00000
  Local    1251.39535  1251.39535  1252.19227    -0.00000     0.00000    -0.00000
  n-local  -194.67694  -207.86589  -201.50833    16.53854    -0.07666    -0.12708
  augment  1435.45249  1435.45249  1435.45377     0.00000    -0.00000     0.00000
  Kinetic  1719.00084  1708.06091  1713.44544     0.72204     0.43727     0.40345
  Fock        0.00000     0.00000     0.00000     0.00000     0.00000     0.00000
  -------------------------------------------------------------------------------------
  Total      17.65067    17.65067    17.48661     0.00000     0.00000     0.00000
  in kB     199.15146   199.15146   197.30030     0.00000     0.00000     0.00000
  external pressure =      198.53 kB  Pullay stress =        0.00 kB


 VOLUME and BASIS-vectors are now :
 -----------------------------------------------------------------------------
  energy-cutoff  :      520.00
  volume of cell :      142.00
      direct lattice vectors                 reciprocal lattice vectors
     3.616969510  0.000000000  0.000000000     0.276474545  0.000000000  0.000000000
     0.000000000  3.616969510  0.000000000     0.000000000  0.276474545  0.000000000
     0.000000000  0.000000000 10.854220721     0.000000000  0.000000000  0.092130059

  length of vectors
     3.616969510  3.616969510 10.854220721     0.276474545  0.276474545  0.092130059


 FORCES acting on ions
    electron-ion (+dipol)            ewald-force                    non-local-force                 convergence-correction
 -----------------------------------------------------------------------------------------------
   -.712E-13 0.971E-12 0.885E-01   0.131E-13 -.538E-14 -.180E+00   -.195E-20 0.150E-21 -.582E-02   0.305E-13 0.215E-13 0.935E-01
   -.714E-13 0.111E-11 0.319E-11   0.344E-13 0.150E-13 0.568E-13   0.267E-24 0.399E-25 -.337E-23   0.283E-13 0.239E-13 -.185E-11
   -.713E-13 0.820E-12 -.885E-01   0.303E-13 0.245E-13 0.180E+00   0.135E-20 0.311E-21 0.582E-02   0.244E-13 0.148E-13 -.935E-01
   0.109E-11 0.790E-11 0.467E-11   0.780E-14 -.264E-13 0.114E-12   -.306E-24 0.655E-24 -.742E-25   -.141E-12 0.179E-14 0.154E-11
   0.108E-11 0.708E-11 -.996E+00   -.891E-14 -.402E-14 0.869E+00   -.692E-21 -.578E-21 0.513E-02   -.140E-12 0.264E-14 0.120E+00
   0.109E-11 0.711E-11 0.996E+00   -.403E-13 -.113E-13 -.869E+00   -.974E-21 -.428E-21 -.513E-02   -.138E-12 -.399E-14 -.120E+00
   0.110E-11 -.747E-13 0.885E-01   -.239E-13 0.111E-13 -.180E+00   0.195E-21 0.584E-21 -.582E-02   -.158E-12 -.245E-13 0.935E-01
   0.110E-11 -.731E-13 0.591E-11   -.444E-15 0.156E-13 -.568E-13   -.537E-25 -.392E-24 -.220E-23   -.161E-12 -.242E-13 -.186E-11
   0.109E-11 -.685E-13 -.885E-01   -.113E-13 0.274E-13 0.180E+00   -.317E-21 -.374E-21 0.582E-02   -.156E-12 -.265E-13 -.935E-01
   -.442E-13 -.531E-13 -.295E-12   -.160E-13 0.223E-13 0.227E-12   -.536E-25 -.339E-25 0.619E-25   0.356E-13 -.740E-14 0.113E-11
   -.442E-13 -.517E-13 -.625E+00   0.164E-13 -.151E-13 0.530E+00   -.131E-20 0.654E-21 0.857E-04   0.366E-13 -.939E-14 0.873E-01
   -.446E-13 -.557E-13 0.625E+00   0.336E-14 -.193E-13 -.530E+00   0.198E-20 -.500E-21 -.857E-04   0.364E-13 -.882E-14 -.873E-01
 -----------------------------------------------------------------------------------------------
   0.620E-11 0.246E-10 0.274E-10   0.445E-14 0.344E-13 0.200E-12   -.171E-20 -.182E-21 0.867E-18   -.701E-12 -.401E-13 -.215E-12
 
 
 POSITION                                       TOTAL-FORCE (eV/Angst)
 -----------------------------------------------------------------------------------
      0.00000      1.80848      1.80914         0.000000     -0.000000     -0.003444
      0.00000      1.80848      5.42711         0.000000      0.000000      0.000000
      0.00000      1.80848      9.04508         0.000000     -0.000000      0.003444
      1.80848      1.80848      0.00000        -0.000000      0.000000     -0.000000
      1.80848      1.80848      3.61764        -0.000000     -0.000000     -0.002568
      1.80848      1.80848      7.23658         0.000000     -0.000000      0.002568
      1.80848      0.00000      1.80914         0.000000      0.000000     -0.003444
      1.80848      0.00000      5.42711         0.000000      0.000000     -0.000000
      1.80848      0.00000      9.04508        -0.000000      0.000000      0.003444
      0.00000      0.00000      0.00000         0.000000      0.000000     -0.000000
      0.00000      0.00000      3.61781         0.000000      0.000000     -0.007336
      0.00000      0.00000      7.23641         0.000000      0.000000      0.007336
 -----------------------------------------------------------------------------------
    total drift:                                0.000000      0.000000      0.000000


--------------------------------------------------------------------------------------------------------



  FREE ENERGIE OF THE ION-ELECTRON SYSTEM (eV)
  ---------------------------------------------------
  free  energy   TOTEN  =       -92.68110966 eV

  energy  without entropy=      -92.68110966  energy(sigma->0) =      -92.68110966
 


--------------------------------------------------------------------------------------------------------


    POTLOK:  cpu time      0.0369: real time      0.0372


--------------------------------------------------------------------------------------------------------


     LOOP+:  cpu time    178.1100: real time    179.5232
 -----------------------------------------------------------------------------
|                                                                             |
|           W    W    AA    RRRRR   N    N  II  N    N   GGGG   !!!           |
|           W    W   A  A   R    R  NN   N  II  NN   N  G    G  !!!           |
|           W    W  A    A  R    R  N N  N  II  N N  N  G       !!!           |
|           W WW W  AAAAAA  RRRRR   N  N N  II  N  N N  G  GGG   !            |
|           WW  WW  A    A  R   R   N   NN  II  N   NN  G    G                |
|           W    W  A    A  R    R  N    N  II  N    N   GGGG   !!!           |
|                                                                             |
|     Tetrahedron method does not include variations of the Fermi             |
|     occupations, so forces and stress will be inaccurate. We suggest        |
|     using a different smearing scheme ISMEAR = 1 or 2 for metals in         |
|     relaxations.                                                            |
|                                                                             |
 -----------------------------------------------------------------------------

    4ORBIT:  cpu time      0.0000: real time      0.0000



 total charge

# of ion       s       p       d       tot
------------------------------------------
    1        0.375   6.383   6.094  12.852
    2        0.375   6.383   6.093  12.850
    3        0.375   6.383   6.094  12.852
    4        0.375   6.383   6.094  12.852
    5        0.375   6.383   6.094  12.852
    6        0.375   6.383   6.094  12.852
    7        0.375   6.383   6.094  12.852
    8        0.375   6.383   6.093  12.850
    9        0.375   6.383   6.094  12.852
   10        0.814   0.822   8.078   9.713
   11        0.814   0.822   8.078   9.713
   12        0.814   0.822   8.078   9.713
--------------------------------------------------
tot          5.815  59.913  79.076 144.804



 magnetization (x)

# of ion       s       p       d       tot
------------------------------------------
    1       -0.004  -0.015   2.501   2.482
    2       -0.004  -0.015   2.507   2.488
    3       -0.004  -0.015   2.501   2.482
    4       -0.003  -0.015   2.505   2.487
    5       -0.003  -0.015   2.498   2.479
    6       -0.003  -0.015   2.498   2.479
    7       -0.004  -0.015   2.501   2.482
    8       -0.004  -0.015   2.507   2.488
    9       -0.004  -0.015   2.501   2.482
   10       -0.039  -0.099   0.382   0.244
   11       -0.039  -0.100   0.384   0.245
   12       -0.039  -0.100   0.384   0.245
--------------------------------------------------
tot         -0.148  -0.436  23.669  23.085
 
 BZINTS: Fermi energy:   11.021772;  156.000000 electrons
         Band energy:-0.143883E+04;  BLOECHL correction:   -0.072210

 total amount of memory used by VASP MPI-rank0   176528. kBytes
=======================================================================

   base      :      30000. kBytes
   nonl-proj :      94414. kBytes
   fftplans  :        888. kBytes
   grid      :       6813. kBytes
   one-center:        373. kBytes
   wavefun   :      44040. kBytes
 
  
  
 General timing and accounting informations for this job:
 ========================================================
  
                  Total CPU time used (sec):      197.939
                            User time (sec):      190.015
                          System time (sec):        7.924
                         Elapsed time (sec):      205.139
  
                   Maximum memory used (kb):      872732.
                   Average memory used (kb):          N/A
  
                          Minor page faults:       196021
                          Major page faults:          156
                 Voluntary context switches:         7410
