 vasp.6.4.3 19Mar24 (build Mar 26 2024 14:05:37) complex                        
  
 executed on             LinuxIFC date 2024.12.16  09:02:50
 running  128 mpi-ranks, on    1 nodes
 distrk:  each k-point on   32 cores,    4 groups
 distr:  one band on NCORE=   1 cores,   32 groups


--------------------------------------------------------------------------------------------------------


 INCAR:
   ALGO = All
   EDIFF = 1e-06
   EDIFFG = -0.01
   ENCUT = 520
   GGA = Pe
   IBRION = 2
   ISIF = 4
   ISMEAR = 1
   ISPIN = 2
   KPAR = 4
   LCHARG = True
   LORBIT = 11
   LREAL = False
   LWAVE = False
   MAGMOM = 1*2.495 1*2.496 2*2.495 2*2.494 1*2.495 1*2.496 1*2.495 3*0.248
   NELM = 200
   NSW = 100
   PREC = Accurate
   SIGMA = 0.2

 POTCAR:    PAW_PBE Fe_pv 02Aug2007               
 POTCAR:    PAW_PBE Pt 04Feb2005                  
 -----------------------------------------------------------------------------
|                                                                             |
|           W    W    AA    RRRRR   N    N  II  N    N   GGGG   !!!           |
|           W    W   A  A   R    R  NN   N  II  NN   N  G    G  !!!           |
|           W    W  A    A  R    R  N N  N  II  N N  N  G       !!!           |
|           W WW W  AAAAAA  RRRRR   N  N N  II  N  N N  G  GGG   !            |
|           WW  WW  A    A  R   R   N   NN  II  N   NN  G    G                |
|           W    W  A    A  R    R  N    N  II  N    N   GGGG   !!!           |
|                                                                             |
|     For optimal performance we recommend to set                             |
|       NCORE = 2 up to number-of-cores-per-socket                            |
|     NCORE specifies how many cores store one orbital (NPAR=cpu/NCORE).      |
|     This setting can greatly improve the performance of VASP for DFT.       |
|     The default, NCORE=1 might be grossly inefficient on modern             |
|     multi-core architectures or massively parallel machines. Do your        |
|     own testing! More info at https://www.vasp.at/wiki/index.php/NCORE      |
|     Unfortunately you need to use the default for GW and RPA                |
|     calculations (for HF NCORE is supported but not extensively tested      |
|     yet).                                                                   |
|                                                                             |
 -----------------------------------------------------------------------------

 POTCAR:    PAW_PBE Fe_pv 02Aug2007               
   SHA256 =  5d22e414b1f82158bf2c7ecb8b97b28fd0923e48cadc1c3bf74d524558f5dd32 Fe_pv/POTCAR          
   COPYR  = (c) Copyright 02Aug2007 Georg Kresse                                                    
   COPYR  = This file is part of the software VASP. Any use, copying, and all other rights are regul
   COPYR  = If you do not have a valid VASP license, you may not use, copy or distribute this file. 
   VRHFIN =Fe:  3pd7s1                                                                              
   LEXCH  = PE                                                                                      
   EATOM  =  2457.4239 eV,  180.6156 Ry                                                             
                                                                                                    
   TITEL  = PAW_PBE Fe_pv 02Aug2007                                                                 
   LULTRA =        F    use ultrasoft PP ?                                                          
   IUNSCR =        1    unscreen: 0-lin 1-nonlin 2-no                                               
   RPACOR =    1.750    partial core radius                                                         
   POMASS =   55.847; ZVAL   =   14.000    mass and valenz                                          
   RCORE  =    2.200    outmost cutoff radius                                                       
   RWIGS  =    2.200; RWIGS  =    1.164    wigner-seitz radius (au A)                               
   ENMAX  =  293.238; ENMIN  =  219.928 eV                                                          
   ICORE  =        3    local potential                                                             
   LCOR   =        T    correct aug charges                                                         
   LPAW   =        T    paw PP                                                                      
   EAUG   =  578.342                                                                                
   DEXC   =    0.000                                                                                
   RMAX   =    2.249    core radius for proj-oper                                                   
   RAUG   =    1.300    factor for augmentation sphere                                              
   RDEP   =    2.296    radius for radial grids                                                     
   RDEPT  =    1.766    core radius for aug-charge                                                  
                                                                                                    
   Atomic configuration                                                                             
    8 entries                                                                                       
     n  l   j            E        occ.                                                              
     1  0  0.50     -6993.8440   2.0000                                                             
     2  0  0.50      -814.6047   2.0000                                                             
     2  1  1.50      -693.3689   6.0000                                                             
     3  0  0.50       -89.4732   2.0000                                                             
     3  1  1.50       -55.6373   6.0000                                                             
     3  2  2.50        -3.8151   7.0000                                                             
     4  0  0.50        -4.2551   1.0000                                                             
     4  3  2.50        -1.3606   0.0000                                                             
   Description                                                                                      
     l       E           TYP  RCUT    TYP  RCUT                                                     
     1    -55.6372668     23  2.000                                                                 
     1     -5.4423304     23  2.000                                                                 
     2     -3.8151096     23  2.200                                                                 
     2     -5.1756922     23  2.200                                                                 
     0     -4.2550951     23  2.200                                                                 
     0     27.2116520     23  2.200                                                                 
     3     -1.3605826     23  2.200                                                                 
  local pseudopotential read in
  partial core-charges read in
  partial kinetic energy density read in
  atomic valenz-charges read in
  non local Contribution for L=           1  read in
    real space projection operators read in
  non local Contribution for L=           1  read in
    real space projection operators read in
  non local Contribution for L=           2  read in
    real space projection operators read in
  non local Contribution for L=           2  read in
    real space projection operators read in
  non local Contribution for L=           0  read in
    real space projection operators read in
  non local Contribution for L=           0  read in
    real space projection operators read in
    PAW grid and wavefunctions read in
 
   number of l-projection  operators is LMAX  =           6
   number of lm-projection operators is LMMAX =          18
 
 POTCAR:    PAW_PBE Pt 04Feb2005                  
   SHA256 =  3ed90460adef76debcff1cfb73ee1349b515b1a3db03439735b44de3a8db7dc8 Pt/POTCAR             
   COPYR  = (c) Copyright 04Feb2005 Georg Kresse                                                    
   COPYR  = This file is part of the software VASP. Any use, copying, and all other rights are regul
   COPYR  = If you do not have a valid VASP license, you may not use, copy or distribute this file. 
   VRHFIN =Pt: s1d9                                                                                 
   LEXCH  = PE                                                                                      
   EATOM  =   729.1176 eV,   53.5886 Ry                                                             
                                                                                                    
   TITEL  = PAW_PBE Pt 04Feb2005                                                                    
   LULTRA =        F    use ultrasoft PP ?                                                          
   IUNSCR =        1    unscreen: 0-lin 1-nonlin 2-no                                               
   RPACOR =    2.330    partial core radius                                                         
   POMASS =  195.080; ZVAL   =   10.000    mass and valenz                                          
   RCORE  =    2.600    outmost cutoff radius                                                       
   RWIGS  =    2.750; RWIGS  =    1.455    wigner-seitz radius (au A)                               
   ENMAX  =  230.283; ENMIN  =  172.712 eV                                                          
   ICORE  =        3    local potential                                                             
   LCOR   =        T    correct aug charges                                                         
   LPAW   =        T    paw PP                                                                      
   EAUG   =  358.966                                                                                
   DEXC   =    0.000                                                                                
   RMAX   =    2.658    core radius for proj-oper                                                   
   RAUG   =    1.300    factor for augmentation sphere                                              
   RDEP   =    2.761    radius for radial grids                                                     
   RDEPT  =    2.203    core radius for aug-charge                                                  
                                                                                                    
   Atomic configuration                                                                             
   16 entries                                                                                       
     n  l   j            E        occ.                                                              
     1  0  0.50    -78401.1885   2.0000                                                             
     2  0  0.50    -13770.7750   2.0000                                                             
     2  1  1.50    -11931.0468   6.0000                                                             
     3  0  0.50     -3234.7234   2.0000                                                             
     3  1  1.50     -2699.2216   6.0000                                                             
     3  2  2.50     -2119.5714  10.0000                                                             
     4  0  0.50      -695.1528   2.0000                                                             
     4  1  1.50      -519.6034   6.0000                                                             
     4  2  2.50      -306.6786  10.0000                                                             
     4  3  3.50       -70.1041  14.0000                                                             
     5  0  0.50      -101.7747   2.0000                                                             
     5  1  1.50       -55.9873   6.0000                                                             
     5  2  2.50        -6.1423   9.0000                                                             
     6  0  0.50        -5.6573   1.0000                                                             
     6  1  1.50        -6.8029   0.0000                                                             
     5  3  2.50        -1.3606   0.0000                                                             
   Description                                                                                      
     l       E           TYP  RCUT    TYP  RCUT                                                     
     2     -6.1423404     23  2.500                                                                 
     2     -7.5029230     23  2.500                                                                 
     0     -5.6573207     23  2.500                                                                 
     0      0.7416693     23  2.500                                                                 
     1     -2.7211652     23  2.600                                                                 
     1     20.4087390     23  2.600                                                                 
     3     -1.3605826     23  2.500                                                                 
  local pseudopotential read in
  partial core-charges read in
  partial kinetic energy density read in
  atomic valenz-charges read in
  non local Contribution for L=           2  read in
    real space projection operators read in
  non local Contribution for L=           2  read in
    real space projection operators read in
  non local Contribution for L=           0  read in
    real space projection operators read in
  non local Contribution for L=           0  read in
    real space projection operators read in
  non local Contribution for L=           1  read in
    real space projection operators read in
  non local Contribution for L=           1  read in
    real space projection operators read in
    PAW grid and wavefunctions read in
 
   number of l-projection  operators is LMAX  =           6
   number of lm-projection operators is LMMAX =          18
 
  PAW_PBE Fe_pv 02Aug2007               :
 energy of atom  1       EATOM=-2457.4239
 kinetic energy error for atom=    0.0062 (will be added to EATOM!!)
  PAW_PBE Pt 04Feb2005                  :
 energy of atom  2       EATOM= -729.1176
 kinetic energy error for atom=    0.0032 (will be added to EATOM!!)
 
 
 POSCAR: Fe9 Pt3
  positions in direct lattice
  velocities in cartesian coordinates


 exchange-correlation table for PE
   RHO(1)=    0.500       N(1)  =     2000
   RHO(2)=  100.500       N(2)  =     4000
 


--------------------------------------------------------------------------------------------------------


 ion  position               nearest neighbor table
   1  0.000  0.500  0.167-   7 2.56   7 2.56   7 2.56   7 2.56   5 2.56   5 2.56  11 2.56  11 2.56
                             4 2.56  10 2.56  10 2.56   4 2.56
   2  0.000  0.500  0.500-   8 2.56   8 2.56   8 2.56   8 2.56  11 2.56  12 2.56  12 2.56  11 2.56
                             5 2.56   6 2.56   5 2.56   6 2.56
   3  0.000  0.500  0.833-   9 2.56   9 2.56   9 2.56   9 2.56   6 2.56   6 2.56  12 2.56  12 2.56
                             4 2.56  10 2.56  10 2.56   4 2.56
   4  0.500  0.500  0.000-  10 2.56  10 2.56  10 2.56  10 2.56   1 2.56   7 2.56   9 2.56   3 2.56
                             1 2.56   3 2.56   7 2.56   9 2.56
   5  0.500  0.500  0.333-  11 2.56  11 2.56  11 2.56  11 2.56   7 2.56   1 2.56   1 2.56   7 2.56
                             8 2.56   2 2.56   8 2.56   2 2.56
   6  0.500  0.500  0.667-  12 2.56  12 2.56  12 2.56  12 2.56   9 2.56   3 2.56   3 2.56   9 2.56
                             2 2.56   8 2.56   2 2.56   8 2.56
   7  0.500  0.000  0.167-   1 2.56   1 2.56   1 2.56   1 2.56   5 2.56   5 2.56  11 2.56  11 2.56
                            10 2.56  10 2.56   4 2.56   4 2.56
   8  0.500  0.000  0.500-   2 2.56   2 2.56   2 2.56   2 2.56  12 2.56  11 2.56  12 2.56  11 2.56
                             6 2.56   5 2.56   5 2.56   6 2.56
   9  0.500  0.000  0.833-   3 2.56   3 2.56   3 2.56   3 2.56   6 2.56   6 2.56  12 2.56  12 2.56
                            10 2.56  10 2.56   4 2.56   4 2.56
  10  0.000  0.000  0.000-   4 2.56   4 2.56   4 2.56   4 2.56   9 2.56   1 2.56   3 2.56   3 2.56
                             1 2.56   7 2.56   9 2.56   7 2.56
  11  0.000  0.000  0.333-   5 2.56   5 2.56   5 2.56   5 2.56   1 2.56   7 2.56   7 2.56   1 2.56
                             2 2.56   2 2.56   8 2.56   8 2.56
  12  0.000  0.000  0.667-   6 2.56   6 2.56   6 2.56   6 2.56   3 2.56   9 2.56   9 2.56   3 2.56
                             2 2.56   8 2.56   8 2.56   2 2.56
 
  LATTYP: Found a simple tetragonal cell.
 ALAT       =     3.6169695103
 C/A-ratio  =     3.0009157362
  
  Lattice vectors:
  
 A1 = (   3.6169695103,   0.0000000000,   0.0000000000)
 A2 = (   0.0000000000,   3.6169695103,   0.0000000000)
 A3 = (   0.0000000000,   0.0000000000,  10.8542207206)


Analysis of symmetry for initial positions (statically):
=====================================================================
 Subroutine PRICEL returns:
 Original cell was already a primitive cell.
 

 Routine SETGRP: Setting up the symmetry group for a 
 simple tetragonal supercell.


 Subroutine GETGRP returns: Found 16 space group operations
 (whereof 16 operations were pure point group operations)
 out of a pool of 16 trial point group operations.


The static configuration has the point symmetry D_4h.


Analysis of symmetry for dynamics (positions and initial velocities):
=====================================================================
 Subroutine PRICEL returns:
 Original cell was already a primitive cell.
 

 Routine SETGRP: Setting up the symmetry group for a 
 simple tetragonal supercell.


 Subroutine GETGRP returns: Found 16 space group operations
 (whereof 16 operations were pure point group operations)
 out of a pool of 16 trial point group operations.


The dynamic configuration has the point symmetry D_4h.


Analysis of structural, dynamic, and magnetic symmetry:
=====================================================================
 Subroutine PRICEL returns:
 Original cell was already a primitive cell.
 

 Routine SETGRP: Setting up the symmetry group for a 
 simple tetragonal supercell.


 Subroutine GETGRP returns: Found 16 space group operations
 (whereof 16 operations were pure point group operations)
 out of a pool of 16 trial point group operations.


The overall configuration has the point symmetry D_4h.


 Subroutine INISYM returns: Found 16 space group operations
 (whereof 16 operations are pure point group operations),
 and found     1 'primitive' translations


----------------------------------------------------------------------------------------

                                     Primitive cell                                     

  volume of cell :     142.0000

  direct lattice vectors                    reciprocal lattice vectors
     3.616969510  0.000000000  0.000000000     0.276474545  0.000000000  0.000000000
     0.000000000  3.616969510  0.000000000     0.000000000  0.276474545  0.000000000
     0.000000000  0.000000000 10.854220721     0.000000000  0.000000000  0.092130059

  length of vectors
     3.616969510  3.616969510 10.854220721     0.276474545  0.276474545  0.092130059

  position of ions in fractional coordinates (direct lattice)
     0.000000000  0.500000000  0.166676517
     0.000000000  0.500000000  0.500000000
     0.000000000  0.500000000  0.833323483
     0.500000000  0.500000000  0.000000000
     0.500000000  0.500000000  0.333293006
     0.500000000  0.500000000  0.666706994
     0.500000000  0.000000000  0.166676517
     0.500000000  0.000000000  0.500000000
     0.500000000  0.000000000  0.833323483
     0.000000000  0.000000000  0.000000000
     0.000000000  0.000000000  0.333309487
     0.000000000  0.000000000  0.666690513

  ion indices of the primitive-cell ions
   primitive index   ion index
                 1           1
                 2           2
                 3           3
                 4           4
                 5           5
                 6           6
                 7           7
                 8           8
                 9           9
                10          10
                11          11
                12          12

----------------------------------------------------------------------------------------

 
 
 KPOINTS: pymatgen with grid density = 8800 / numb

Automatic generation of k-mesh.
 Grid dimensions read from file:
 generate k-points for:   13   13    4

 Generating k-lattice:

  Cartesian coordinates                     Fractional coordinates (reciprocal lattice)
     0.021267273  0.000000000  0.000000000     0.076923077  0.000000000  0.000000000
     0.000000000  0.021267273  0.000000000     0.000000000  0.076923077  0.000000000
     0.000000000  0.000000000  0.023032515     0.000000000  0.000000000  0.250000000

  Length of vectors
     0.021267273  0.021267273  0.023032515

  Shift w.r.t. Gamma in fractional coordinates (k-lattice)
     0.000000000  0.000000000  0.000000000

 
 Subroutine IBZKPT returns following result:
 ===========================================
 
 Found     84 irreducible k-points:
 
 Following reciprocal coordinates:
            Coordinates               Weight
  0.000000  0.000000  0.000000      1.000000
  0.076923  0.000000  0.000000      4.000000
  0.153846  0.000000  0.000000      4.000000
  0.230769  0.000000  0.000000      4.000000
  0.307692  0.000000  0.000000      4.000000
  0.384615  0.000000  0.000000      4.000000
  0.461538  0.000000  0.000000      4.000000
  0.076923  0.076923  0.000000      4.000000
  0.153846  0.076923  0.000000      8.000000
  0.230769  0.076923  0.000000      8.000000
  0.307692  0.076923  0.000000      8.000000
  0.384615  0.076923  0.000000      8.000000
  0.461538  0.076923  0.000000      8.000000
  0.153846  0.153846  0.000000      4.000000
  0.230769  0.153846  0.000000      8.000000
  0.307692  0.153846  0.000000      8.000000
  0.384615  0.153846  0.000000      8.000000
  0.461538  0.153846  0.000000      8.000000
  0.230769  0.230769  0.000000      4.000000
  0.307692  0.230769  0.000000      8.000000
  0.384615  0.230769  0.000000      8.000000
  0.461538  0.230769  0.000000      8.000000
  0.307692  0.307692  0.000000      4.000000
  0.384615  0.307692  0.000000      8.000000
  0.461538  0.307692  0.000000      8.000000
  0.384615  0.384615  0.000000      4.000000
  0.461538  0.384615  0.000000      8.000000
  0.461538  0.461538  0.000000      4.000000
  0.000000  0.000000  0.250000      2.000000
  0.076923  0.000000  0.250000      8.000000
  0.153846  0.000000  0.250000      8.000000
  0.230769  0.000000  0.250000      8.000000
  0.307692  0.000000  0.250000      8.000000
  0.384615  0.000000  0.250000      8.000000
  0.461538  0.000000  0.250000      8.000000
  0.076923  0.076923  0.250000      8.000000
  0.153846  0.076923  0.250000     16.000000
  0.230769  0.076923  0.250000     16.000000
  0.307692  0.076923  0.250000     16.000000
  0.384615  0.076923  0.250000     16.000000
  0.461538  0.076923  0.250000     16.000000
  0.153846  0.153846  0.250000      8.000000
  0.230769  0.153846  0.250000     16.000000
  0.307692  0.153846  0.250000     16.000000
  0.384615  0.153846  0.250000     16.000000
  0.461538  0.153846  0.250000     16.000000
  0.230769  0.230769  0.250000      8.000000
  0.307692  0.230769  0.250000     16.000000
  0.384615  0.230769  0.250000     16.000000
  0.461538  0.230769  0.250000     16.000000
  0.307692  0.307692  0.250000      8.000000
  0.384615  0.307692  0.250000     16.000000
  0.461538  0.307692  0.250000     16.000000
  0.384615  0.384615  0.250000      8.000000
  0.461538  0.384615  0.250000     16.000000
  0.461538  0.461538  0.250000      8.000000
  0.000000  0.000000  0.500000      1.000000
  0.076923  0.000000  0.500000      4.000000
  0.153846  0.000000  0.500000      4.000000
  0.230769  0.000000  0.500000      4.000000
  0.307692  0.000000  0.500000      4.000000
  0.384615  0.000000  0.500000      4.000000
  0.461538  0.000000  0.500000      4.000000
  0.076923  0.076923  0.500000      4.000000
  0.153846  0.076923  0.500000      8.000000
  0.230769  0.076923  0.500000      8.000000
  0.307692  0.076923  0.500000      8.000000
  0.384615  0.076923  0.500000      8.000000
  0.461538  0.076923  0.500000      8.000000
  0.153846  0.153846  0.500000      4.000000
  0.230769  0.153846  0.500000      8.000000
  0.307692  0.153846  0.500000      8.000000
  0.384615  0.153846  0.500000      8.000000
  0.461538  0.153846  0.500000      8.000000
  0.230769  0.230769  0.500000      4.000000
  0.307692  0.230769  0.500000      8.000000
  0.384615  0.230769  0.500000      8.000000
  0.461538  0.230769  0.500000      8.000000
  0.307692  0.307692  0.500000      4.000000
  0.384615  0.307692  0.500000      8.000000
  0.461538  0.307692  0.500000      8.000000
  0.384615  0.384615  0.500000      4.000000
  0.461538  0.384615  0.500000      8.000000
  0.461538  0.461538  0.500000      4.000000
 
 Following cartesian coordinates:
            Coordinates               Weight
  0.000000  0.000000  0.000000      1.000000
  0.021267  0.000000  0.000000      4.000000
  0.042535  0.000000  0.000000      4.000000
  0.063802  0.000000  0.000000      4.000000
  0.085069  0.000000  0.000000      4.000000
  0.106336  0.000000  0.000000      4.000000
  0.127604  0.000000  0.000000      4.000000
  0.021267  0.021267  0.000000      4.000000
  0.042535  0.021267  0.000000      8.000000
  0.063802  0.021267  0.000000      8.000000
  0.085069  0.021267  0.000000      8.000000
  0.106336  0.021267  0.000000      8.000000
  0.127604  0.021267  0.000000      8.000000
  0.042535  0.042535  0.000000      4.000000
  0.063802  0.042535  0.000000      8.000000
  0.085069  0.042535  0.000000      8.000000
  0.106336  0.042535  0.000000      8.000000
  0.127604  0.042535  0.000000      8.000000
  0.063802  0.063802  0.000000      4.000000
  0.085069  0.063802  0.000000      8.000000
  0.106336  0.063802  0.000000      8.000000
  0.127604  0.063802  0.000000      8.000000
  0.085069  0.085069  0.000000      4.000000
  0.106336  0.085069  0.000000      8.000000
  0.127604  0.085069  0.000000      8.000000
  0.106336  0.106336  0.000000      4.000000
  0.127604  0.106336  0.000000      8.000000
  0.127604  0.127604  0.000000      4.000000
  0.000000  0.000000  0.023033      2.000000
  0.021267  0.000000  0.023033      8.000000
  0.042535  0.000000  0.023033      8.000000
  0.063802  0.000000  0.023033      8.000000
  0.085069  0.000000  0.023033      8.000000
  0.106336  0.000000  0.023033      8.000000
  0.127604  0.000000  0.023033      8.000000
  0.021267  0.021267  0.023033      8.000000
  0.042535  0.021267  0.023033     16.000000
  0.063802  0.021267  0.023033     16.000000
  0.085069  0.021267  0.023033     16.000000
  0.106336  0.021267  0.023033     16.000000
  0.127604  0.021267  0.023033     16.000000
  0.042535  0.042535  0.023033      8.000000
  0.063802  0.042535  0.023033     16.000000
  0.085069  0.042535  0.023033     16.000000
  0.106336  0.042535  0.023033     16.000000
  0.127604  0.042535  0.023033     16.000000
  0.063802  0.063802  0.023033      8.000000
  0.085069  0.063802  0.023033     16.000000
  0.106336  0.063802  0.023033     16.000000
  0.127604  0.063802  0.023033     16.000000
  0.085069  0.085069  0.023033      8.000000
  0.106336  0.085069  0.023033     16.000000
  0.127604  0.085069  0.023033     16.000000
  0.106336  0.106336  0.023033      8.000000
  0.127604  0.106336  0.023033     16.000000
  0.127604  0.127604  0.023033      8.000000
  0.000000  0.000000  0.046065      1.000000
  0.021267  0.000000  0.046065      4.000000
  0.042535  0.000000  0.046065      4.000000
  0.063802  0.000000  0.046065      4.000000
  0.085069  0.000000  0.046065      4.000000
  0.106336  0.000000  0.046065      4.000000
  0.127604  0.000000  0.046065      4.000000
  0.021267  0.021267  0.046065      4.000000
  0.042535  0.021267  0.046065      8.000000
  0.063802  0.021267  0.046065      8.000000
  0.085069  0.021267  0.046065      8.000000
  0.106336  0.021267  0.046065      8.000000
  0.127604  0.021267  0.046065      8.000000
  0.042535  0.042535  0.046065      4.000000
  0.063802  0.042535  0.046065      8.000000
  0.085069  0.042535  0.046065      8.000000
  0.106336  0.042535  0.046065      8.000000
  0.127604  0.042535  0.046065      8.000000
  0.063802  0.063802  0.046065      4.000000
  0.085069  0.063802  0.046065      8.000000
  0.106336  0.063802  0.046065      8.000000
  0.127604  0.063802  0.046065      8.000000
  0.085069  0.085069  0.046065      4.000000
  0.106336  0.085069  0.046065      8.000000
  0.127604  0.085069  0.046065      8.000000
  0.106336  0.106336  0.046065      4.000000
  0.127604  0.106336  0.046065      8.000000
  0.127604  0.127604  0.046065      4.000000
 


--------------------------------------------------------------------------------------------------------




 Dimension of arrays:
   k-points           NKPTS =     84   k-points in BZ     NKDIM =     84   number of bands    NBANDS=    128
   number of dos      NEDOS =    301   number of ions     NIONS =     12
   non local maximal  LDIM  =      6   non local SUM 2l+1 LMDIM =     18
   total plane-waves  NPLWV =  65856
   max r-space proj   IRMAX =      1   max aug-charges    IRDMAX=  28286
   dimension x,y,z NGX =    28 NGY =   28 NGZ =   84
   dimension x,y,z NGXF=    56 NGYF=   56 NGZF=  168
   support grid    NGXF=    56 NGYF=   56 NGZF=  168
   ions per type =               9   3
   NGX,Y,Z   is equivalent  to a cutoff of  12.87, 12.87, 12.87 a.u.
   NGXF,Y,Z  is equivalent  to a cutoff of  25.74, 25.74, 25.73 a.u.

 SYSTEM =  unknown system                          
 POSCAR =  Fe9 Pt3                                 

 Startparameter for this run:
   NWRITE =      2    write-flag & timer
   PREC   = accura    normal or accurate (medium, high low for compatibility)
   ISTART =      0    job   : 0-new  1-cont  2-samecut
   ICHARG =      2    charge: 1-file 2-atom 10-const
   ISPIN  =      2    spin polarized calculation?
   LNONCOLLINEAR =      F non collinear calculations
   LSORBIT =      F    spin-orbit coupling
   INIWAV =      1    electr: 0-lowe 1-rand  2-diag
   LASPH  =      F    aspherical Exc in radial PAW
 Electronic Relaxation 1
   ENCUT  =  520.0 eV  38.22 Ry    6.18 a.u.   6.73  6.73 20.18*2*pi/ulx,y,z
   ENINI  =  520.0     initial cutoff
   ENAUG  =  578.3 eV  augmentation charge cutoff
   NELM   =    200;   NELMIN=  2; NELMDL=  0     # of ELM steps 
   EDIFF  = 0.1E-05   stopping-criterion for ELM
   LREAL  =      F    real-space projection
   NLSPLINE    = F    spline interpolate recip. space projectors
   LCOMPAT=      F    compatible to vasp.4.4
   GGA_COMPAT  = T    GGA compatible to vasp.4.4-vasp.4.6
   LMAXPAW     = -100 max onsite density
   LMAXMIX     =    2 max onsite mixed and CHGCAR
   VOSKOWN=      0    Vosko Wilk Nusair interpolation
   ROPT   =    0.00000   0.00000
 Ionic relaxation
   EDIFFG = -.1E-01   stopping-criterion for IOM
   NSW    =    100    number of steps for IOM
   NBLOCK =      1;   KBLOCK =    100    inner block; outer block 
   IBRION =      2    ionic relax: 0-MD 1-quasi-New 2-CG
   NFREE  =      1    steps in history (QN), initial steepest desc. (CG)
   ISIF   =      4    stress and relaxation
   IWAVPR =     11    prediction:  0-non 1-charg 2-wave 3-comb
   ISYM   =      2    0-nonsym 1-usesym 2-fastsym
   LCORR  =      T    Harris-Foulkes like correction to forces

   POTIM  = 0.5000    time-step for ionic-motion
   TEIN   =    0.0    initial temperature
   TEBEG  =    0.0;   TEEND  =   0.0 temperature during run
   SMASS  =  -3.00    Nose mass-parameter (am)
   estimated Nose-frequenzy (Omega)   =  0.10E-29 period in steps = 0.13E+47 mass=  -0.299E-27a.u.
   SCALEE = 1.0000    scale energy and forces
   NPACO  =    256;   APACO  = 10.0  distance and # of slots for P.C.
   PSTRESS=    0.0 pullay stress

  Mass of Ions in am
   POMASS =  55.85195.08
  Ionic Valenz
   ZVAL   =  14.00 10.00
  Atomic Wigner-Seitz radii
   RWIGS  =  -1.00 -1.00
  virtual crystal weights 
   VCA    =   1.00  1.00
   NELECT =     156.0000    total number of electrons
   NUPDOWN=      -1.0000    fix difference up-down

 DOS related values:
   EMIN   =  10.00;   EMAX   =-10.00  energy-range for DOS
   EFERMI =   0.00;   METHOD = LEGACY      
   ISMEAR =     1;   SIGMA  =   0.20  broadening in eV -4-tet -1-fermi 0-gaus

 Electronic relaxation 2 (details)
   IALGO  =     58    algorithm
   LDIAG  =      T    sub-space diagonalisation (order eigenvalues)
   LSUBROT=      F    optimize rotation matrix (better conditioning)
   TURBO    =      0    0=normal 1=particle mesh
   IRESTART =      0    0=no restart 2=restart with 2 vectors
   NREBOOT  =      0    no. of reboots
   NMIN     =      0    reboot dimension
   EREF     =   0.00    reference energy to select bands
   IMIX   =      4    mixing-type and parameters
     AMIX     =   0.40;   BMIX     =  1.00
     AMIX_MAG =   1.60;   BMIX_MAG =  1.00
     AMIN     =   0.10
     WC   =   100.;   INIMIX=   1;  MIXPRE=   1;  MAXMIX= -45

 Intra band minimization:
   WEIMIN = 0.0010     energy-eigenvalue tresh-hold
   EBREAK =  0.20E-08  absolut break condition
   DEPER  =   0.30     relativ break condition  

   TIME   =   0.40     timestep for ELM

  volume/ion in A,a.u.               =      11.83        79.86
  Fermi-wavevector in a.u.,A,eV,Ry     =   1.689223  3.192168 38.823863  2.853473
  Thomas-Fermi vector in A             =   2.771388
 
 Write flags
   LWAVE        =      F    write WAVECAR
   LDOWNSAMPLE  =      F    k-point downsampling of WAVECAR
   LCHARG       =      T    write CHGCAR
   LVTOT        =      F    write LOCPOT, total local potential
   LVHAR        =      F    write LOCPOT, Hartree potential only
   WRT_POTENTIAL= false  ! write potential to hdf5 file
   LELF         =      F    write electronic localiz. function (ELF)
   LORBIT       =     11    0 simple, 1 ext, 2 COOP (PROOUT), +10 PAW based schemes


 Dipole corrections
   LMONO      =      F    monopole corrections only (constant potential shift)
   LDIPOL     =      F    correct potential (dipole corrections)
   IDIPOL     =      0    1-x, 2-y, 3-z, 4-all directions 
   EPSILON    =  1.0000000 bulk dielectric constant
   LVACPOTAV  =      F  vacuum potentials using an averaging scheme for the charge density
   VACPOTFLAT =  0.1000000 required flatness to determine vacuum potential
 Exchange correlation treatment:
   GGA     = PE    functional components
   XC_C    = 1    coefficients multiplying the functional components
   LIBXC   =     F    Libxc                    
   VOSKOWN =     0    Vosko Wilk Nusair interpolation
   LHFCALC =     F    Hartree Fock is set to
   LHFONE  =     F    Hartree Fock one center treatment
   AEXX    =    0.0000 exact exchange contribution

 Parameters of functionals:
   PE:
     No parameter
 
 Van der Waals corrections
   IVDW    =     0    specifies the selected vdW correction

 Linear response parameters
   LEPSILON=     F    determine dielectric tensor
   LRPA    =     F    only Hartree local field effects (RPA)
   LNABLA  =     F    use nabla operator in PAW spheres
   LVEL    =     F    velocity operator in full k-point grid
   CSHIFT  =0.1000    complex shift for real part using Kramers Kronig
   OMEGAMAX=  -1.0    maximum frequency
   DEG_THRESHOLD= 0.2000000E-02 threshold for treating states as degnerate
   RTIME   =   -0.100 relaxation time in fs
  (WPLASMAI=    0.000 imaginary part of plasma frequency in eV, 0.658/RTIME)
   DFIELD  = 0.0000000 0.0000000 0.0000000 field for delta impulse in time
 
  Optional k-point grid parameters
   LKPOINTS_OPT  =     F    use optional k-point grid
   KPOINTS_OPT_MODE=     1    mode for optional k-point grid
 
 Orbital magnetization related:
   ORBITALMAG=     F  switch on orbital magnetization
   LCHIMAG   =     F  perturbation theory with respect to B field
   DQ        =  0.001000  dq finite difference perturbation B field
   LLRAUG    =     F  two centre corrections for induced B field
   LBONE     =     F  B-component reconstruction in AE one-centre
   LVGVCALC  =     T  calculate vGv susceptibility
   LVGVAPPL  =     F  apply vGv susceptibility instead of pGv for G=0

 Random number generation:
   RANDOM_GENERATOR = DEFAULT
   PCG_SEED         = not used


--------------------------------------------------------------------------------------------------------


 conjugate gradient relaxation of ions
 charge density and potential will be updated during run
 spin polarized calculation
 Conjugate gradient for all bands (Freysoldt, et al. PRB 79, 241103 (2009))
 preconditioned conjugated gradient                                        
 perform sub-space diagonalisation
    before iterative eigenvector-optimisation
 modified Broyden-mixing scheme, WC =      100.0
 initial mixing is a Kerker type mixing with AMIX =  0.4000 and BMIX =      1.0000
 Hartree-type preconditioning will be used
 using additional bands           50
 reciprocal scheme for non local part
 use partial core corrections
 no Harris-corrections to forces 
 use gradient corrections 
 use of overlap-Matrix (Vanderbilt PP)
 Methfessel and Paxton  Order N= 1 SIGMA  =   0.20


--------------------------------------------------------------------------------------------------------


  energy-cutoff  :      520.00
  volume of cell :      142.00
      direct lattice vectors                 reciprocal lattice vectors
     3.616969510  0.000000000  0.000000000     0.276474545  0.000000000  0.000000000
     0.000000000  3.616969510  0.000000000     0.000000000  0.276474545  0.000000000
     0.000000000  0.000000000 10.854220721     0.000000000  0.000000000  0.092130059

  length of vectors
     3.616969510  3.616969510 10.854220721     0.276474545  0.276474545  0.092130059


 
 k-points in units of 2pi/SCALE and weight: pymatgen with grid density = 8800 / numb
   0.00000000  0.00000000  0.00000000       0.001
   0.02126727  0.00000000  0.00000000       0.006
   0.04253455  0.00000000  0.00000000       0.006
   0.06380182  0.00000000  0.00000000       0.006
   0.08506909  0.00000000  0.00000000       0.006
   0.10633636  0.00000000  0.00000000       0.006
   0.12760364  0.00000000  0.00000000       0.006
   0.02126727  0.02126727  0.00000000       0.006
   0.04253455  0.02126727  0.00000000       0.012
   0.06380182  0.02126727  0.00000000       0.012
   0.08506909  0.02126727  0.00000000       0.012
   0.10633636  0.02126727  0.00000000       0.012
   0.12760364  0.02126727  0.00000000       0.012
   0.04253455  0.04253455  0.00000000       0.006
   0.06380182  0.04253455  0.00000000       0.012
   0.08506909  0.04253455  0.00000000       0.012
   0.10633636  0.04253455  0.00000000       0.012
   0.12760364  0.04253455  0.00000000       0.012
   0.06380182  0.06380182  0.00000000       0.006
   0.08506909  0.06380182  0.00000000       0.012
   0.10633636  0.06380182  0.00000000       0.012
   0.12760364  0.06380182  0.00000000       0.012
   0.08506909  0.08506909  0.00000000       0.006
   0.10633636  0.08506909  0.00000000       0.012
   0.12760364  0.08506909  0.00000000       0.012
   0.10633636  0.10633636  0.00000000       0.006
   0.12760364  0.10633636  0.00000000       0.012
   0.12760364  0.12760364  0.00000000       0.006
   0.00000000  0.00000000  0.02303251       0.003
   0.02126727  0.00000000  0.02303251       0.012
   0.04253455  0.00000000  0.02303251       0.012
   0.06380182  0.00000000  0.02303251       0.012
   0.08506909  0.00000000  0.02303251       0.012
   0.10633636  0.00000000  0.02303251       0.012
   0.12760364  0.00000000  0.02303251       0.012
   0.02126727  0.02126727  0.02303251       0.012
   0.04253455  0.02126727  0.02303251       0.024
   0.06380182  0.02126727  0.02303251       0.024
   0.08506909  0.02126727  0.02303251       0.024
   0.10633636  0.02126727  0.02303251       0.024
   0.12760364  0.02126727  0.02303251       0.024
   0.04253455  0.04253455  0.02303251       0.012
   0.06380182  0.04253455  0.02303251       0.024
   0.08506909  0.04253455  0.02303251       0.024
   0.10633636  0.04253455  0.02303251       0.024
   0.12760364  0.04253455  0.02303251       0.024
   0.06380182  0.06380182  0.02303251       0.012
   0.08506909  0.06380182  0.02303251       0.024
   0.10633636  0.06380182  0.02303251       0.024
   0.12760364  0.06380182  0.02303251       0.024
   0.08506909  0.08506909  0.02303251       0.012
   0.10633636  0.08506909  0.02303251       0.024
   0.12760364  0.08506909  0.02303251       0.024
   0.10633636  0.10633636  0.02303251       0.012
   0.12760364  0.10633636  0.02303251       0.024
   0.12760364  0.12760364  0.02303251       0.012
   0.00000000  0.00000000  0.04606503       0.001
   0.02126727  0.00000000  0.04606503       0.006
   0.04253455  0.00000000  0.04606503       0.006
   0.06380182  0.00000000  0.04606503       0.006
   0.08506909  0.00000000  0.04606503       0.006
   0.10633636  0.00000000  0.04606503       0.006
   0.12760364  0.00000000  0.04606503       0.006
   0.02126727  0.02126727  0.04606503       0.006
   0.04253455  0.02126727  0.04606503       0.012
   0.06380182  0.02126727  0.04606503       0.012
   0.08506909  0.02126727  0.04606503       0.012
   0.10633636  0.02126727  0.04606503       0.012
   0.12760364  0.02126727  0.04606503       0.012
   0.04253455  0.04253455  0.04606503       0.006
   0.06380182  0.04253455  0.04606503       0.012
   0.08506909  0.04253455  0.04606503       0.012
   0.10633636  0.04253455  0.04606503       0.012
   0.12760364  0.04253455  0.04606503       0.012
   0.06380182  0.06380182  0.04606503       0.006
   0.08506909  0.06380182  0.04606503       0.012
   0.10633636  0.06380182  0.04606503       0.012
   0.12760364  0.06380182  0.04606503       0.012
   0.08506909  0.08506909  0.04606503       0.006
   0.10633636  0.08506909  0.04606503       0.012
   0.12760364  0.08506909  0.04606503       0.012
   0.10633636  0.10633636  0.04606503       0.006
   0.12760364  0.10633636  0.04606503       0.012
   0.12760364  0.12760364  0.04606503       0.006
 
 k-points in reciprocal lattice and weights: pymatgen with grid density = 8800 / numb
   0.00000000  0.00000000  0.00000000       0.001
   0.07692308  0.00000000  0.00000000       0.006
   0.15384615  0.00000000  0.00000000       0.006
   0.23076923  0.00000000  0.00000000       0.006
   0.30769231  0.00000000  0.00000000       0.006
   0.38461538  0.00000000  0.00000000       0.006
   0.46153846  0.00000000  0.00000000       0.006
   0.07692308  0.07692308  0.00000000       0.006
   0.15384615  0.07692308  0.00000000       0.012
   0.23076923  0.07692308  0.00000000       0.012
   0.30769231  0.07692308  0.00000000       0.012
   0.38461538  0.07692308  0.00000000       0.012
   0.46153846  0.07692308  0.00000000       0.012
   0.15384615  0.15384615  0.00000000       0.006
   0.23076923  0.15384615  0.00000000       0.012
   0.30769231  0.15384615  0.00000000       0.012
   0.38461538  0.15384615  0.00000000       0.012
   0.46153846  0.15384615  0.00000000       0.012
   0.23076923  0.23076923  0.00000000       0.006
   0.30769231  0.23076923  0.00000000       0.012
   0.38461538  0.23076923  0.00000000       0.012
   0.46153846  0.23076923  0.00000000       0.012
   0.30769231  0.30769231  0.00000000       0.006
   0.38461538  0.30769231  0.00000000       0.012
   0.46153846  0.30769231  0.00000000       0.012
   0.38461538  0.38461538  0.00000000       0.006
   0.46153846  0.38461538  0.00000000       0.012
   0.46153846  0.46153846  0.00000000       0.006
   0.00000000  0.00000000  0.25000000       0.003
   0.07692308  0.00000000  0.25000000       0.012
   0.15384615  0.00000000  0.25000000       0.012
   0.23076923  0.00000000  0.25000000       0.012
   0.30769231  0.00000000  0.25000000       0.012
   0.38461538  0.00000000  0.25000000       0.012
   0.46153846  0.00000000  0.25000000       0.012
   0.07692308  0.07692308  0.25000000       0.012
   0.15384615  0.07692308  0.25000000       0.024
   0.23076923  0.07692308  0.25000000       0.024
   0.30769231  0.07692308  0.25000000       0.024
   0.38461538  0.07692308  0.25000000       0.024
   0.46153846  0.07692308  0.25000000       0.024
   0.15384615  0.15384615  0.25000000       0.012
   0.23076923  0.15384615  0.25000000       0.024
   0.30769231  0.15384615  0.25000000       0.024
   0.38461538  0.15384615  0.25000000       0.024
   0.46153846  0.15384615  0.25000000       0.024
   0.23076923  0.23076923  0.25000000       0.012
   0.30769231  0.23076923  0.25000000       0.024
   0.38461538  0.23076923  0.25000000       0.024
   0.46153846  0.23076923  0.25000000       0.024
   0.30769231  0.30769231  0.25000000       0.012
   0.38461538  0.30769231  0.25000000       0.024
   0.46153846  0.30769231  0.25000000       0.024
   0.38461538  0.38461538  0.25000000       0.012
   0.46153846  0.38461538  0.25000000       0.024
   0.46153846  0.46153846  0.25000000       0.012
   0.00000000  0.00000000  0.50000000       0.001
   0.07692308  0.00000000  0.50000000       0.006
   0.15384615  0.00000000  0.50000000       0.006
   0.23076923  0.00000000  0.50000000       0.006
   0.30769231  0.00000000  0.50000000       0.006
   0.38461538  0.00000000  0.50000000       0.006
   0.46153846  0.00000000  0.50000000       0.006
   0.07692308  0.07692308  0.50000000       0.006
   0.15384615  0.07692308  0.50000000       0.012
   0.23076923  0.07692308  0.50000000       0.012
   0.30769231  0.07692308  0.50000000       0.012
   0.38461538  0.07692308  0.50000000       0.012
   0.46153846  0.07692308  0.50000000       0.012
   0.15384615  0.15384615  0.50000000       0.006
   0.23076923  0.15384615  0.50000000       0.012
   0.30769231  0.15384615  0.50000000       0.012
   0.38461538  0.15384615  0.50000000       0.012
   0.46153846  0.15384615  0.50000000       0.012
   0.23076923  0.23076923  0.50000000       0.006
   0.30769231  0.23076923  0.50000000       0.012
   0.38461538  0.23076923  0.50000000       0.012
   0.46153846  0.23076923  0.50000000       0.012
   0.30769231  0.30769231  0.50000000       0.006
   0.38461538  0.30769231  0.50000000       0.012
   0.46153846  0.30769231  0.50000000       0.012
   0.38461538  0.38461538  0.50000000       0.006
   0.46153846  0.38461538  0.50000000       0.012
   0.46153846  0.46153846  0.50000000       0.006
 
 position of ions in fractional coordinates (direct lattice) 
   0.00000000  0.50000000  0.16667652
   0.00000000  0.50000000  0.50000000
   0.00000000  0.50000000  0.83332348
   0.50000000  0.50000000  0.00000000
   0.50000000  0.50000000  0.33329301
   0.50000000  0.50000000  0.66670699
   0.50000000  0.00000000  0.16667652
   0.50000000  0.00000000  0.50000000
   0.50000000  0.00000000  0.83332348
   0.00000000  0.00000000  0.00000000
   0.00000000  0.00000000  0.33330949
   0.00000000  0.00000000  0.66669051
 
 position of ions in cartesian coordinates  (Angst):
   0.00000000  1.80848476  1.80914371
   0.00000000  1.80848476  5.42711036
   0.00000000  1.80848476  9.04507701
   1.80848476  1.80848476  0.00000000
   1.80848476  1.80848476  3.61763585
   1.80848476  1.80848476  7.23658487
   1.80848476  0.00000000  1.80914371
   1.80848476  0.00000000  5.42711036
   1.80848476  0.00000000  9.04507701
   0.00000000  0.00000000  0.00000000
   0.00000000  0.00000000  3.61781474
   0.00000000  0.00000000  7.23640598
 


--------------------------------------------------------------------------------------------------------


 k-point     1 :   0.0000 0.0000 0.0000  plane waves:    3865
 k-point     2 :   0.0769 0.0000 0.0000  plane waves:    3829
 k-point     3 :   0.1538 0.0000 0.0000  plane waves:    3835
 k-point     4 :   0.2308 0.0000 0.0000  plane waves:    3837
 k-point     5 :   0.3077 0.0000 0.0000  plane waves:    3828
 k-point     6 :   0.3846 0.0000 0.0000  plane waves:    3834
 k-point     7 :   0.4615 0.0000 0.0000  plane waves:    3812
 k-point     8 :   0.0769 0.0769 0.0000  plane waves:    3827
 k-point     9 :   0.1538 0.0769 0.0000  plane waves:    3830
 k-point    10 :   0.2308 0.0769 0.0000  plane waves:    3825
 k-point    11 :   0.3077 0.0769 0.0000  plane waves:    3830
 k-point    12 :   0.3846 0.0769 0.0000  plane waves:    3823
 k-point    13 :   0.4615 0.0769 0.0000  plane waves:    3803
 k-point    14 :   0.1538 0.1538 0.0000  plane waves:    3817
 k-point    15 :   0.2308 0.1538 0.0000  plane waves:    3829
 k-point    16 :   0.3077 0.1538 0.0000  plane waves:    3814
 k-point    17 :   0.3846 0.1538 0.0000  plane waves:    3820
 k-point    18 :   0.4615 0.1538 0.0000  plane waves:    3806
 k-point    19 :   0.2308 0.2308 0.0000  plane waves:    3819
 k-point    20 :   0.3077 0.2308 0.0000  plane waves:    3819
 k-point    21 :   0.3846 0.2308 0.0000  plane waves:    3815
 k-point    22 :   0.4615 0.2308 0.0000  plane waves:    3818
 k-point    23 :   0.3077 0.3077 0.0000  plane waves:    3810
 k-point    24 :   0.3846 0.3077 0.0000  plane waves:    3801
 k-point    25 :   0.4615 0.3077 0.0000  plane waves:    3825
 k-point    26 :   0.3846 0.3846 0.0000  plane waves:    3832
 k-point    27 :   0.4615 0.3846 0.0000  plane waves:    3853
 k-point    28 :   0.4615 0.4615 0.0000  plane waves:    3852
 k-point    29 :   0.0000 0.0000 0.2500  plane waves:    3828
 k-point    30 :   0.0769 0.0000 0.2500  plane waves:    3827
 k-point    31 :   0.1538 0.0000 0.2500  plane waves:    3837
 k-point    32 :   0.2308 0.0000 0.2500  plane waves:    3832
 k-point    33 :   0.3077 0.0000 0.2500  plane waves:    3827
 k-point    34 :   0.3846 0.0000 0.2500  plane waves:    3820
 k-point    35 :   0.4615 0.0000 0.2500  plane waves:    3809
 k-point    36 :   0.0769 0.0769 0.2500  plane waves:    3829
 k-point    37 :   0.1538 0.0769 0.2500  plane waves:    3832
 k-point    38 :   0.2308 0.0769 0.2500  plane waves:    3830
 k-point    39 :   0.3077 0.0769 0.2500  plane waves:    3823
 k-point    40 :   0.3846 0.0769 0.2500  plane waves:    3823
 k-point    41 :   0.4615 0.0769 0.2500  plane waves:    3817
 k-point    42 :   0.1538 0.1538 0.2500  plane waves:    3830
 k-point    43 :   0.2308 0.1538 0.2500  plane waves:    3830
 k-point    44 :   0.3077 0.1538 0.2500  plane waves:    3819
 k-point    45 :   0.3846 0.1538 0.2500  plane waves:    3817
 k-point    46 :   0.4615 0.1538 0.2500  plane waves:    3821
 k-point    47 :   0.2308 0.2308 0.2500  plane waves:    3806
 k-point    48 :   0.3077 0.2308 0.2500  plane waves:    3809
 k-point    49 :   0.3846 0.2308 0.2500  plane waves:    3817
 k-point    50 :   0.4615 0.2308 0.2500  plane waves:    3818
 k-point    51 :   0.3077 0.3077 0.2500  plane waves:    3819
 k-point    52 :   0.3846 0.3077 0.2500  plane waves:    3820
 k-point    53 :   0.4615 0.3077 0.2500  plane waves:    3834
 k-point    54 :   0.3846 0.3846 0.2500  plane waves:    3832
 k-point    55 :   0.4615 0.3846 0.2500  plane waves:    3838
 k-point    56 :   0.4615 0.4615 0.2500  plane waves:    3832
 k-point    57 :   0.0000 0.0000 0.5000  plane waves:    3816
 k-point    58 :   0.0769 0.0000 0.5000  plane waves:    3832
 k-point    59 :   0.1538 0.0000 0.5000  plane waves:    3824
 k-point    60 :   0.2308 0.0000 0.5000  plane waves:    3824
 k-point    61 :   0.3077 0.0000 0.5000  plane waves:    3834
 k-point    62 :   0.3846 0.0000 0.5000  plane waves:    3822
 k-point    63 :   0.4615 0.0000 0.5000  plane waves:    3812
 k-point    64 :   0.0769 0.0769 0.5000  plane waves:    3824
 k-point    65 :   0.1538 0.0769 0.5000  plane waves:    3848
 k-point    66 :   0.2308 0.0769 0.5000  plane waves:    3830
 k-point    67 :   0.3077 0.0769 0.5000  plane waves:    3824
 k-point    68 :   0.3846 0.0769 0.5000  plane waves:    3816
 k-point    69 :   0.4615 0.0769 0.5000  plane waves:    3810
 k-point    70 :   0.1538 0.1538 0.5000  plane waves:    3832
 k-point    71 :   0.2308 0.1538 0.5000  plane waves:    3820
 k-point    72 :   0.3077 0.1538 0.5000  plane waves:    3808
 k-point    73 :   0.3846 0.1538 0.5000  plane waves:    3830
 k-point    74 :   0.4615 0.1538 0.5000  plane waves:    3814
 k-point    75 :   0.2308 0.2308 0.5000  plane waves:    3824
 k-point    76 :   0.3077 0.2308 0.5000  plane waves:    3820
 k-point    77 :   0.3846 0.2308 0.5000  plane waves:    3818
 k-point    78 :   0.4615 0.2308 0.5000  plane waves:    3820
 k-point    79 :   0.3077 0.3077 0.5000  plane waves:    3812
 k-point    80 :   0.3846 0.3077 0.5000  plane waves:    3822
 k-point    81 :   0.4615 0.3077 0.5000  plane waves:    3826
 k-point    82 :   0.3846 0.3846 0.5000  plane waves:    3836
 k-point    83 :   0.4615 0.3846 0.5000  plane waves:    3834
 k-point    84 :   0.4615 0.4615 0.5000  plane waves:    3852

 maximum and minimum number of plane-waves per node :      3865     3801

 maximum number of plane-waves:      3865
 maximum index in each direction: 
   IXMAX=    6   IYMAX=    6   IZMAX=   20
   IXMIN=   -7   IYMIN=   -7   IZMIN=  -20


 serial   3D FFT for wavefunctions
 parallel 3D FFT for charge:
    minimum data exchange during FFTs selected (reduces bandwidth)


 total amount of memory used by VASP MPI-rank0   264608. kBytes
=======================================================================

   base      :      30000. kBytes
   nonl-proj :      94414. kBytes
   fftplans  :        888. kBytes
   grid      :       6813. kBytes
   one-center:        373. kBytes
   wavefun   :     132120. kBytes
 
     INWAV:  cpu time      0.0001: real time      0.0001
 Broyden mixing: mesh for mixing (old mesh)
   NGX = 13   NGY = 13   NGZ = 41
  (NGX  = 56   NGY  = 56   NGZ  =168)
  gives a total of   6929 points

 initial charge density was supplied:
 charge density of overlapping atoms calculated
 number of electron     156.0000000 magnetization      23.1990000
 charge density for first step will be calculated from the start-wavefunctions


--------------------------------------------------------------------------------------------------------


 Maximum index for augmentation-charges         1093 (set IRDMAX)


--------------------------------------------------------------------------------------------------------


 First call to EWALD:  gamma=   0.340
 Maximum number of real-space cells 4x 4x 2
 Maximum number of reciprocal cells 2x 2x 5

    FEWALD:  cpu time      0.0021: real time      0.0021


--------------------------------------- Ionic step        1  -------------------------------------------




--------------------------------------- Iteration      1(   1)  ---------------------------------------


    POTLOK:  cpu time      0.0318: real time      0.0327
    SETDIJ:  cpu time      0.0135: real time      0.0142
    TRIAL :  cpu time      5.6015: real time      5.6444
    CORREC:  cpu time      0.0025: real time      0.0025
    --------------------------------------------
      LOOP:  cpu time      5.7676: real time      5.8155

 eigenvalue-minimisations  : 43136
 total energy-change (2. order) : 0.1763205E+04  (-0.9126478E+04)
 number of electron     156.0000000 magnetization      23.1990000
 augmentation part      156.0000000 magnetization      23.1990000

 Free energy of the ion-electron system (eV)
  ---------------------------------------------------
  alpha Z        PSCENC =      1198.52203918
  Ewald energy   TEWEN  =    -18668.36092130
  -Hartree energ DENC   =     -5704.97082068
  -exchange      EXHF   =         0.00000000
  -V(xc)+E(xc)   XCENC  =       660.71377367
  PAW double counting   =     20094.82979655   -20818.83818648
  entropy T*S    EENTRO =         0.00235132
  eigenvalues    EBANDS =       697.20440203
  atomic energy  EATOM  =     24304.10294433
  ---------------------------------------------------
  free energy    TOTEN  =      1763.20537862 eV

  energy without entropy =     1763.20302730  energy(sigma->0) =     1763.20459485


--------------------------------------------------------------------------------------------------------




--------------------------------------- Iteration      1(   2)  ---------------------------------------


    TRIAL :  cpu time      5.4811: real time      5.5196
    CORREC:  cpu time      0.0025: real time      0.0025
    --------------------------------------------
      LOOP:  cpu time      5.5046: real time      5.5436

 eigenvalue-minimisations  : 43008
 total energy-change (2. order) :-0.1756742E+04  (-0.1664405E+04)
 number of electron     156.0000000 magnetization      23.1990000
 augmentation part      156.0000000 magnetization      23.1990000

 Free energy of the ion-electron system (eV)
  ---------------------------------------------------
  alpha Z        PSCENC =      1198.52203918
  Ewald energy   TEWEN  =    -18668.36092130
  -Hartree energ DENC   =     -5704.97082068
  -exchange      EXHF   =         0.00000000
  -V(xc)+E(xc)   XCENC  =       660.71377367
  PAW double counting   =     20094.82979655   -20818.83818648
  entropy T*S    EENTRO =        -0.00736944
  eigenvalues    EBANDS =     -1059.52812081
  atomic energy  EATOM  =     24304.10294433
  ---------------------------------------------------
  free energy    TOTEN  =         6.46313502 eV

  energy without entropy =        6.47050446  energy(sigma->0) =        6.46559150


--------------------------------------------------------------------------------------------------------




--------------------------------------- Iteration      1(   3)  ---------------------------------------


    TRIAL :  cpu time      6.6064: real time      6.6520
    CORREC:  cpu time      0.0024: real time      0.0025
    --------------------------------------------
      LOOP:  cpu time      6.6255: real time      6.6770

 eigenvalue-minimisations  : 50528
 total energy-change (2. order) :-0.1087284E+03  (-0.1072366E+03)
 number of electron     156.0000000 magnetization      23.1990000
 augmentation part      156.0000000 magnetization      23.1990000

 Free energy of the ion-electron system (eV)
  ---------------------------------------------------
  alpha Z        PSCENC =      1198.52203918
  Ewald energy   TEWEN  =    -18668.36092130
  -Hartree energ DENC   =     -5704.97082068
  -exchange      EXHF   =         0.00000000
  -V(xc)+E(xc)   XCENC  =       660.71377367
  PAW double counting   =     20094.82979655   -20818.83818648
  entropy T*S    EENTRO =        -0.04076182
  eigenvalues    EBANDS =     -1168.22311477
  atomic energy  EATOM  =     24304.10294433
  ---------------------------------------------------
  free energy    TOTEN  =      -102.26525132 eV

  energy without entropy =     -102.22448950  energy(sigma->0) =     -102.25166404


--------------------------------------------------------------------------------------------------------




--------------------------------------- Iteration      1(   4)  ---------------------------------------


    TRIAL :  cpu time      6.1013: real time      6.1442
    CORREC:  cpu time      0.0025: real time      0.0025
    --------------------------------------------
      LOOP:  cpu time      6.1254: real time      6.1685

 eigenvalue-minimisations  : 46208
 total energy-change (2. order) :-0.1492320E+01  (-0.1491998E+01)
 number of electron     156.0000000 magnetization      23.1990000
 augmentation part      156.0000000 magnetization      23.1990000

 Free energy of the ion-electron system (eV)
  ---------------------------------------------------
  alpha Z        PSCENC =      1198.52203918
  Ewald energy   TEWEN  =    -18668.36092130
  -Hartree energ DENC   =     -5704.97082068
  -exchange      EXHF   =         0.00000000
  -V(xc)+E(xc)   XCENC  =       660.71377367
  PAW double counting   =     20094.82979655   -20818.83818648
  entropy T*S    EENTRO =        -0.04080153
  eigenvalues    EBANDS =     -1169.71539520
  atomic energy  EATOM  =     24304.10294433
  ---------------------------------------------------
  free energy    TOTEN  =      -103.75757146 eV

  energy without entropy =     -103.71676993  energy(sigma->0) =     -103.74397095


--------------------------------------------------------------------------------------------------------




--------------------------------------- Iteration      1(   5)  ---------------------------------------


    TRIAL :  cpu time      6.9553: real time      7.0023
    CORREC:  cpu time      0.0098: real time      0.0098
    CHARGE:  cpu time      0.1739: real time      0.1753
    --------------------------------------------
      LOOP:  cpu time      7.1555: real time      7.2091

 eigenvalue-minimisations  : 52896
 total energy-change (2. order) :-0.2630215E-01  (-0.2630141E-01)
 number of electron     155.9999673 magnetization      17.4209487
 augmentation part       79.3591008 magnetization      12.6254967

 Free energy of the ion-electron system (eV)
  ---------------------------------------------------
  alpha Z        PSCENC =      1198.52203918
  Ewald energy   TEWEN  =    -18668.36092130
  -Hartree energ DENC   =     -5704.97082068
  -exchange      EXHF   =         0.00000000
  -V(xc)+E(xc)   XCENC  =       660.71377367
  PAW double counting   =     20094.82979655   -20818.83818648
  entropy T*S    EENTRO =        -0.04080110
  eigenvalues    EBANDS =     -1169.74169778
  atomic energy  EATOM  =     24304.10294433
  ---------------------------------------------------
  free energy    TOTEN  =      -103.78387361 eV

  energy without entropy =     -103.74307251  energy(sigma->0) =     -103.77027324


--------------------------------------------------------------------------------------------------------




--------------------------------------- Iteration      1(   6)  ---------------------------------------


    POTLOK:  cpu time      0.0222: real time      0.0224
    SETDIJ:  cpu time      0.0084: real time      0.0084
    TRIAL :  cpu time      2.7062: real time      2.7315
    CORREC:  cpu time      1.0992: real time      1.1093
    CHARGE:  cpu time      0.1632: real time      0.1640
    --------------------------------------------
      LOOP:  cpu time      4.0165: real time      4.0568

 eigenvalue-minimisations  :     0
 total energy-change (2. order) : 0.4365199E+02  (-0.2596063E+02)
 number of electron     155.9999658 magnetization      18.7262618
 augmentation part       83.3753941 magnetization      13.9806594

 Free energy of the ion-electron system (eV)
  ---------------------------------------------------
  alpha Z        PSCENC =      1198.52203918
  Ewald energy   TEWEN  =    -18668.36092130
  -Hartree energ DENC   =     -4665.66650038
  -exchange      EXHF   =         0.00000000
  -V(xc)+E(xc)   XCENC  =       615.67892518
  PAW double counting   =     22050.41096827   -22724.48692403
  entropy T*S    EENTRO =        -0.01809150
  eigenvalues    EBANDS =     -2170.29161364
  atomic energy  EATOM  =     24304.10294433
  ---------------------------------------------------
  free energy    TOTEN  =       -60.13188349 eV

  energy without entropy =      -60.11379199  energy(sigma->0) =      -60.12585299


--------------------------------------------------------------------------------------------------------




--------------------------------------- Iteration      1(   7)  ---------------------------------------


    POTLOK:  cpu time      0.0220: real time      0.0222
    SETDIJ:  cpu time      0.0075: real time      0.0075
    TRIAL :  cpu time      2.6072: real time      2.6338
    CORREC:  cpu time      1.0937: real time      1.1056
    CHARGE:  cpu time      0.1574: real time      0.1587
    --------------------------------------------
      LOOP:  cpu time      3.9064: real time      3.9507

 eigenvalue-minimisations  :     0
 total energy-change (2. order) :-0.2640947E+02  (-0.4007698E+01)
 number of electron     155.9999658 magnetization      19.5829546
 augmentation part       84.3827847 magnetization      14.7714177

 Free energy of the ion-electron system (eV)
  ---------------------------------------------------
  alpha Z        PSCENC =      1198.52203918
  Ewald energy   TEWEN  =    -18668.36092130
  -Hartree energ DENC   =     -5216.94941328
  -exchange      EXHF   =         0.00000000
  -V(xc)+E(xc)   XCENC  =       638.79207793
  PAW double counting   =     22645.61476221   -23426.91911382
  entropy T*S    EENTRO =        -0.01908722
  eigenvalues    EBANDS =     -1561.32563598
  atomic energy  EATOM  =     24304.10294433
  ---------------------------------------------------
  free energy    TOTEN  =       -86.54135222 eV

  energy without entropy =      -86.52226499  energy(sigma->0) =      -86.53498981


--------------------------------------------------------------------------------------------------------




--------------------------------------- Iteration      1(   8)  ---------------------------------------


    POTLOK:  cpu time      0.0215: real time      0.0217
    SETDIJ:  cpu time      0.0080: real time      0.0081
    TRIAL :  cpu time      2.6232: real time      2.6497
    CORREC:  cpu time      1.0916: real time      1.1031
    CHARGE:  cpu time      0.1585: real time      0.1595
    --------------------------------------------
      LOOP:  cpu time      3.9212: real time      3.9662

 eigenvalue-minimisations  :     0
 total energy-change (2. order) :-0.3998431E+01  (-0.4198878E+00)
 number of electron     155.9999658 magnetization      19.7037105
 augmentation part       84.4835445 magnetization      14.8776610

 Free energy of the ion-electron system (eV)
  ---------------------------------------------------
  alpha Z        PSCENC =      1198.52203918
  Ewald energy   TEWEN  =    -18668.36092130
  -Hartree energ DENC   =     -5318.08254592
  -exchange      EXHF   =         0.00000000
  -V(xc)+E(xc)   XCENC  =       643.95398001
  PAW double counting   =     22805.43745413   -23584.83361576
  entropy T*S    EENTRO =        -0.01869248
  eigenvalues    EBANDS =     -1471.26003046
  atomic energy  EATOM  =     24304.10294433
  ---------------------------------------------------
  free energy    TOTEN  =       -90.53978301 eV

  energy without entropy =      -90.52109053  energy(sigma->0) =      -90.53355219


--------------------------------------------------------------------------------------------------------




--------------------------------------- Iteration      1(   9)  ---------------------------------------


    POTLOK:  cpu time      0.0213: real time      0.0215
    SETDIJ:  cpu time      0.0078: real time      0.0078
    TRIAL :  cpu time      2.6795: real time      2.7055
    CORREC:  cpu time      1.0933: real time      1.1051
    CHARGE:  cpu time      0.1562: real time      0.1571
    --------------------------------------------
      LOOP:  cpu time      3.9740: real time      4.0195

 eigenvalue-minimisations  :     0
 total energy-change (2. order) :-0.4402547E+00  (-0.9389912E+00)
 number of electron     155.9999658 magnetization      20.2240349
 augmentation part       84.5834022 magnetization      15.3067312

 Free energy of the ion-electron system (eV)
  ---------------------------------------------------
  alpha Z        PSCENC =      1198.52203918
  Ewald energy   TEWEN  =    -18668.36092130
  -Hartree energ DENC   =     -5328.16435058
  -exchange      EXHF   =         0.00000000
  -V(xc)+E(xc)   XCENC  =       644.49561795
  PAW double counting   =     22827.73454381   -23606.10924418
  entropy T*S    EENTRO =        -0.01317645
  eigenvalues    EBANDS =     -1463.18197442
  atomic energy  EATOM  =     24304.10294433
  ---------------------------------------------------
  free energy    TOTEN  =       -90.98003768 eV

  energy without entropy =      -90.96686122  energy(sigma->0) =      -90.97564553


--------------------------------------------------------------------------------------------------------




--------------------------------------- Iteration      1(  10)  ---------------------------------------


    POTLOK:  cpu time      0.0215: real time      0.0217
    SETDIJ:  cpu time      0.0077: real time      0.0078
    TRIAL :  cpu time      2.5962: real time      2.6226
    CORREC:  cpu time      1.1491: real time      1.1611
    CHARGE:  cpu time      0.1557: real time      0.1566
    --------------------------------------------
      LOOP:  cpu time      3.9477: real time      3.9928

 eigenvalue-minimisations  :     0
 total energy-change (2. order) :-0.9450347E+00  (-0.2074391E+00)
 number of electron     155.9999659 magnetization      20.3528994
 augmentation part       84.6119416 magnetization      15.4134040

 Free energy of the ion-electron system (eV)
  ---------------------------------------------------
  alpha Z        PSCENC =      1198.52203918
  Ewald energy   TEWEN  =    -18668.36092130
  -Hartree energ DENC   =     -5344.47886856
  -exchange      EXHF   =         0.00000000
  -V(xc)+E(xc)   XCENC  =       645.33110105
  PAW double counting   =     22818.20796688   -23583.74521766
  entropy T*S    EENTRO =        -0.01081077
  eigenvalues    EBANDS =     -1461.49093981
  atomic energy  EATOM  =     24304.10294433
  ---------------------------------------------------
  free energy    TOTEN  =       -91.92507234 eV

  energy without entropy =      -91.91426157  energy(sigma->0) =      -91.92146875


--------------------------------------------------------------------------------------------------------




--------------------------------------- Iteration      1(  11)  ---------------------------------------


    POTLOK:  cpu time      0.0214: real time      0.0216
    SETDIJ:  cpu time      0.0084: real time      0.0084
    TRIAL :  cpu time      2.7201: real time      2.7477
    CORREC:  cpu time      1.0937: real time      1.1055
    CHARGE:  cpu time      0.1553: real time      0.1561
    --------------------------------------------
      LOOP:  cpu time      4.0178: real time      4.0632

 eigenvalue-minimisations  :     0
 total energy-change (2. order) :-0.2975762E+00  (-0.9592976E-01)
 number of electron     155.9999659 magnetization      20.4072760
 augmentation part       84.6299426 magnetization      15.4587479

 Free energy of the ion-electron system (eV)
  ---------------------------------------------------
  alpha Z        PSCENC =      1198.52203918
  Ewald energy   TEWEN  =    -18668.36092130
  -Hartree energ DENC   =     -5348.85479555
  -exchange      EXHF   =         0.00000000
  -V(xc)+E(xc)   XCENC  =       645.56213156
  PAW double counting   =     22820.67448030   -23583.47357423
  entropy T*S    EENTRO =        -0.00981189
  eigenvalues    EBANDS =     -1460.38414200
  atomic energy  EATOM  =     24304.10294433
  ---------------------------------------------------
  free energy    TOTEN  =       -92.22264849 eV

  energy without entropy =      -92.21283661  energy(sigma->0) =      -92.21937786


--------------------------------------------------------------------------------------------------------




--------------------------------------- Iteration      1(  12)  ---------------------------------------


    POTLOK:  cpu time      0.0215: real time      0.0218
    SETDIJ:  cpu time      0.0081: real time      0.0081
    TRIAL :  cpu time      2.7183: real time      2.7455
    CORREC:  cpu time      1.0952: real time      1.1071
    CHARGE:  cpu time      0.1564: real time      0.1573
    --------------------------------------------
      LOOP:  cpu time      4.0169: real time      4.0629

 eigenvalue-minimisations  :     0
 total energy-change (2. order) :-0.1016400E+00  (-0.7444265E-01)
 number of electron     155.9999659 magnetization      20.5046537
 augmentation part       84.6782093 magnetization      15.5406139

 Free energy of the ion-electron system (eV)
  ---------------------------------------------------
  alpha Z        PSCENC =      1198.52203918
  Ewald energy   TEWEN  =    -18668.36092130
  -Hartree energ DENC   =     -5351.50917618
  -exchange      EXHF   =         0.00000000
  -V(xc)+E(xc)   XCENC  =       645.69285704
  PAW double counting   =     22821.58466828   -23583.75696137
  entropy T*S    EENTRO =        -0.00872810
  eigenvalues    EBANDS =     -1458.58992660
  atomic energy  EATOM  =     24304.10294433
  ---------------------------------------------------
  free energy    TOTEN  =       -92.32428850 eV

  energy without entropy =      -92.31556040  energy(sigma->0) =      -92.32137914


--------------------------------------------------------------------------------------------------------




--------------------------------------- Iteration      1(  13)  ---------------------------------------


    POTLOK:  cpu time      0.0211: real time      0.0213
    SETDIJ:  cpu time      0.0084: real time      0.0084
    TRIAL :  cpu time      2.6525: real time      2.6789
    CORREC:  cpu time      1.0893: real time      1.1011
    CHARGE:  cpu time      0.1568: real time      0.1577
    --------------------------------------------
      LOOP:  cpu time      3.9466: real time      3.9898

 eigenvalue-minimisations  :     0
 total energy-change (2. order) :-0.7292422E-01  (-0.4042815E-01)
 number of electron     155.9999659 magnetization      20.5832022
 augmentation part       84.7164622 magnetization      15.6065075

 Free energy of the ion-electron system (eV)
  ---------------------------------------------------
  alpha Z        PSCENC =      1198.52203918
  Ewald energy   TEWEN  =    -18668.36092130
  -Hartree energ DENC   =     -5358.27575235
  -exchange      EXHF   =         0.00000000
  -V(xc)+E(xc)   XCENC  =       646.01357539
  PAW double counting   =     22822.59013969   -23585.03010908
  entropy T*S    EENTRO =        -0.00820624
  eigenvalues    EBANDS =     -1451.95040049
  atomic energy  EATOM  =     24304.10294433
  ---------------------------------------------------
  free energy    TOTEN  =       -92.39721273 eV

  energy without entropy =      -92.38900649  energy(sigma->0) =      -92.39447731


--------------------------------------------------------------------------------------------------------




--------------------------------------- Iteration      1(  14)  ---------------------------------------


    POTLOK:  cpu time      0.0216: real time      0.0218
    SETDIJ:  cpu time      0.0080: real time      0.0081
    TRIAL :  cpu time      2.6772: real time      2.7040
    CORREC:  cpu time      1.0913: real time      1.1031
    CHARGE:  cpu time      0.1545: real time      0.1554
    --------------------------------------------
      LOOP:  cpu time      3.9708: real time      4.0159

 eigenvalue-minimisations  :     0
 total energy-change (2. order) :-0.3920540E-01  (-0.6637535E-01)
 number of electron     155.9999659 magnetization      20.7583221
 augmentation part       84.7915060 magnetization      15.7532038

 Free energy of the ion-electron system (eV)
  ---------------------------------------------------
  alpha Z        PSCENC =      1198.52203918
  Ewald energy   TEWEN  =    -18668.36092130
  -Hartree energ DENC   =     -5363.33359122
  -exchange      EXHF   =         0.00000000
  -V(xc)+E(xc)   XCENC  =       646.26227260
  PAW double counting   =     22822.55772267   -23585.44844056
  entropy T*S    EENTRO =        -0.00722256
  eigenvalues    EBANDS =     -1446.73023760
  atomic energy  EATOM  =     24304.10294433
  ---------------------------------------------------
  free energy    TOTEN  =       -92.43641813 eV

  energy without entropy =      -92.42919557  energy(sigma->0) =      -92.43401061


--------------------------------------------------------------------------------------------------------




--------------------------------------- Iteration      1(  15)  ---------------------------------------


    POTLOK:  cpu time      0.0217: real time      0.0219
    SETDIJ:  cpu time      0.0082: real time      0.0082
    TRIAL :  cpu time      2.6340: real time      2.6600
    CORREC:  cpu time      1.1009: real time      1.1123
    CHARGE:  cpu time      0.1525: real time      0.1533
    --------------------------------------------
      LOOP:  cpu time      3.9343: real time      3.9783

 eigenvalue-minimisations  :     0
 total energy-change (2. order) :-0.6392511E-01  (-0.4556953E-01)
 number of electron     155.9999659 magnetization      20.8934718
 augmentation part       84.8405164 magnetization      15.8663117

 Free energy of the ion-electron system (eV)
  ---------------------------------------------------
  alpha Z        PSCENC =      1198.52203918
  Ewald energy   TEWEN  =    -18668.36092130
  -Hartree energ DENC   =     -5372.31606569
  -exchange      EXHF   =         0.00000000
  -V(xc)+E(xc)   XCENC  =       646.73911018
  PAW double counting   =     22819.23481787   -23583.21864782
  entropy T*S    EENTRO =        -0.00628073
  eigenvalues    EBANDS =     -1437.19639743
  atomic energy  EATOM  =     24304.10294433
  ---------------------------------------------------
  free energy    TOTEN  =       -92.50034324 eV

  energy without entropy =      -92.49406251  energy(sigma->0) =      -92.49824966


--------------------------------------------------------------------------------------------------------




--------------------------------------- Iteration      1(  16)  ---------------------------------------


    POTLOK:  cpu time      0.0213: real time      0.0215
    SETDIJ:  cpu time      0.0080: real time      0.0081
    TRIAL :  cpu time      2.7355: real time      2.7626
    CORREC:  cpu time      1.0931: real time      1.1046
    CHARGE:  cpu time      0.1542: real time      0.1550
    --------------------------------------------
      LOOP:  cpu time      4.0287: real time      4.0744

 eigenvalue-minimisations  :     0
 total energy-change (2. order) :-0.4121862E-01  (-0.8077016E-02)
 number of electron     155.9999659 magnetization      20.9383129
 augmentation part       84.8422603 magnetization      15.9037366

 Free energy of the ion-electron system (eV)
  ---------------------------------------------------
  alpha Z        PSCENC =      1198.52203918
  Ewald energy   TEWEN  =    -18668.36092130
  -Hartree energ DENC   =     -5377.53685876
  -exchange      EXHF   =         0.00000000
  -V(xc)+E(xc)   XCENC  =       647.04661584
  PAW double counting   =     22815.49503973   -23580.13189853
  entropy T*S    EENTRO =        -0.00607239
  eigenvalues    EBANDS =     -1431.67224163
  atomic energy  EATOM  =     24304.10294433
  ---------------------------------------------------
  free energy    TOTEN  =       -92.54156186 eV

  energy without entropy =      -92.53548947  energy(sigma->0) =      -92.53953773


--------------------------------------------------------------------------------------------------------




--------------------------------------- Iteration      1(  17)  ---------------------------------------


    POTLOK:  cpu time      0.0212: real time      0.0214
    SETDIJ:  cpu time      0.0079: real time      0.0080
    TRIAL :  cpu time      2.6312: real time      2.6576
    CORREC:  cpu time      1.0910: real time      1.1027
    CHARGE:  cpu time      0.1524: real time      0.1533
    --------------------------------------------
      LOOP:  cpu time      3.9220: real time      3.9657

 eigenvalue-minimisations  :     0
 total energy-change (2. order) :-0.7945423E-02  (-0.2052676E-01)
 number of electron     155.9999659 magnetization      21.0885195
[...]
     61      10.1891      1.00000
     62      10.1917      1.00000
     63      10.6307      1.00960
     64      10.6543      1.01363
     65      10.7109      1.02565
     66      10.7111      1.02590
     67      10.7457      1.03293
     68      10.8000      1.03239
     69      10.8176      1.02570
     70      11.0636      0.31736
     71      11.0636      0.31290
     72      11.0993      0.19002
     73      11.0994      0.18536
     74      11.2940     -0.03259
     75      11.2943     -0.03242
     76      12.2080     -0.00000
     77      12.2101     -0.00000
     78      12.3835     -0.00000
     79      12.3846     -0.00000
     80      12.4265     -0.00000
     81      12.4292     -0.00000
     82      12.6427     -0.00000
     83      12.6452     -0.00000
     84      12.9201     -0.00000
     85      12.9677     -0.00000
     86      13.1419     -0.00000
     87      13.1535     -0.00000
     88      13.2039     -0.00000
     89      13.2206     -0.00000
     90      13.2821     -0.00000
     91      13.2945     -0.00000
     92      13.8026     -0.00000
     93      13.8041     -0.00000
     94      14.2938     -0.00000
     95      14.2967     -0.00000
     96      14.2993     -0.00000
     97      14.3001     -0.00000
     98      14.8723     -0.00000
     99      14.8737     -0.00000
    100      17.5886      0.00000
    101      19.6759      0.00000
    102      19.7423      0.00000
    103      19.7910      0.00000
    104      20.5757      0.00000
    105      20.5775      0.00000
    106      21.3071      0.00000
    107      21.3104      0.00000
    108      21.8513      0.00000
    109      21.8555      0.00000
    110      22.3715      0.00000
    111      22.3731      0.00000
    112      26.8600      0.00000
    113      26.8604      0.00000
    114      27.2769      0.00000
    115      27.2808      0.00000
    116      27.6850      0.00000
    117      27.6878      0.00000
    118      28.6185      0.00000
    119      28.6215      0.00000
    120      29.0462      0.00000
    121      29.0488      0.00000
    122      29.0974      0.00000
    123      29.6101      0.00000
    124      30.9431      0.00000
    125      30.9440      0.00000
    126      31.3425      0.00000
    127      31.3433      0.00000
    128      32.2172      0.00000


--------------------------------------------------------------------------------------------------------


 soft charge-density along one line, spin component           1
         0         1         2         3         4         5         6         7         8         9
 total charge-density along one line
 
 soft charge-density along one line, spin component           2
         0         1         2         3         4         5         6         7         8         9
 total charge-density along one line
 
 pseudopotential strength for first ion, spin component:           1
-44.022  -0.000  -0.000   7.224   0.000   0.000  -0.000  -0.000
 -0.000 -44.023  -0.000   0.000   7.225   0.000   0.000   0.000
 -0.000  -0.000 -43.904   0.000   0.000   7.176   0.000   0.000
  7.224   0.000   0.000   5.723   0.000   0.000   0.000   0.000
  0.000   7.225   0.000   0.000   5.723   0.000  -0.000  -0.000
  0.000   0.000   7.176   0.000   0.000   5.733  -0.000  -0.000
 -0.000   0.000   0.000   0.000  -0.000  -0.000  -1.262  -0.000
 -0.000   0.000   0.000   0.000  -0.000  -0.000  -0.000  -1.351
 -0.000  -0.000   0.000   0.000   0.000  -0.000   0.000  -0.000
  0.000  -0.000  -0.000  -0.000   0.000   0.000  -0.000  -0.000
 -0.000  -0.000  -0.000   0.000   0.000   0.000  -0.000   0.000
 -0.000   0.000   0.000   0.000  -0.000  -0.000  -1.789  -0.000
 -0.000   0.000   0.000   0.000  -0.000  -0.000  -0.000  -1.876
 -0.000  -0.000   0.000   0.000   0.000  -0.000   0.000  -0.000
  0.000  -0.000  -0.000  -0.000   0.000   0.000  -0.000  -0.000
 -0.000  -0.000  -0.000   0.000   0.000   0.000  -0.000   0.000
 -0.000   0.000   0.000  -0.000   0.000   0.000   0.000   0.000
 -0.000   0.000   0.000  -0.000   0.000   0.000   0.000   0.000
 pseudopotential strength for first ion, spin component:           2
-41.869  -0.000  -0.000   6.316   0.000   0.000  -0.000  -0.000
 -0.000 -41.870  -0.000   0.000   6.316   0.000   0.000   0.000
 -0.000  -0.000 -41.770   0.000   0.000   6.275   0.000   0.000
  6.316   0.000   0.000   5.973   0.000   0.000   0.000   0.000
  0.000   6.316   0.000   0.000   5.973   0.000  -0.000  -0.000
  0.000   0.000   6.275   0.000   0.000   5.982  -0.000  -0.000
 -0.000   0.000   0.000   0.000  -0.000  -0.000   0.449  -0.000
 -0.000   0.000   0.000   0.000  -0.000  -0.000  -0.000   0.380
 -0.000  -0.000   0.000   0.000   0.000  -0.000   0.000  -0.000
  0.000  -0.000  -0.000  -0.000   0.000   0.000  -0.000   0.000
 -0.000   0.000  -0.000   0.000  -0.000   0.000  -0.000   0.000
 -0.000   0.000   0.000   0.000  -0.000  -0.000  -0.106  -0.000
 -0.000   0.000   0.000   0.000  -0.000  -0.000  -0.000  -0.174
 -0.000  -0.000   0.000   0.000   0.000  -0.000   0.000  -0.000
  0.000   0.000  -0.000  -0.000   0.000   0.000  -0.000   0.000
 -0.000   0.000  -0.000   0.000  -0.000   0.000  -0.000   0.000
 -0.000   0.000   0.000  -0.000   0.000   0.000   0.000   0.000
 -0.000   0.000  -0.000  -0.000   0.000   0.000   0.000   0.000
 total augmentation occupancy for first ion, spin component:           1
  1.992   0.000   0.000  -0.024   0.000  -0.000   0.000  -0.000   0.000   0.000   0.000  -0.000   0.000   0.000  -0.000   0.000
  0.000   1.992   0.000   0.000  -0.024   0.000   0.000   0.000  -0.000   0.000   0.000   0.000   0.000   0.000  -0.000  -0.000
  0.000   0.000   1.992   0.000   0.000  -0.024   0.000  -0.000   0.000  -0.000  -0.000   0.000  -0.000   0.000   0.000  -0.000
 -0.024   0.000   0.000   0.211  -0.000   0.000   0.000  -0.000   0.000   0.000   0.000   0.000   0.000  -0.000   0.000   0.000
  0.000  -0.024   0.000  -0.000   0.211  -0.000   0.000  -0.000  -0.000  -0.000   0.000   0.000  -0.000   0.000  -0.000  -0.000
 -0.000   0.000  -0.024   0.000  -0.000   0.188  -0.000  -0.000   0.000  -0.000   0.000   0.000   0.000  -0.000   0.000  -0.000
  0.000   0.000   0.000   0.000   0.000  -0.000   3.097   0.000   0.000  -0.000   0.000  -1.930   0.000   0.000   0.000  -0.000
 -0.000   0.000  -0.000  -0.000  -0.000  -0.000   0.000   3.223   0.000   0.000  -0.000   0.000  -2.430   0.000   0.000   0.000
  0.000  -0.000   0.000   0.000  -0.000   0.000   0.000   0.000   3.555   0.000   0.169   0.000  -0.000  -2.260   0.000  -0.085
  0.000   0.000  -0.000   0.000  -0.000  -0.000  -0.000   0.000   0.000   3.087  -0.000   0.000  -0.000   0.000  -1.924  -0.000
  0.000   0.000  -0.000   0.000   0.000   0.000   0.000  -0.000   0.169  -0.000   3.354   0.000   0.000  -0.085   0.000  -2.158
 -0.000   0.000   0.000   0.000   0.000   0.000  -1.930   0.000   0.000   0.000   0.000   2.183  -0.000   0.000  -0.000  -0.000
  0.000   0.000  -0.000   0.000  -0.000   0.000   0.000  -2.430  -0.000  -0.000   0.000  -0.000   2.919   0.000  -0.000  -0.000
  0.000   0.000   0.000  -0.000   0.000  -0.000   0.000   0.000  -2.260   0.000  -0.085   0.000   0.000   2.248   0.000   0.013
 -0.000  -0.000   0.000   0.000  -0.000   0.000   0.000   0.000   0.000  -1.924   0.000  -0.000  -0.000   0.000   2.179   0.000
  0.000  -0.000  -0.000   0.000  -0.000  -0.000  -0.000   0.000  -0.085  -0.000  -2.158  -0.000  -0.000   0.013   0.000   2.230
  0.000  -0.000  -0.000   0.000   0.000   0.000   0.000   0.000  -0.128  -0.000   0.216  -0.000   0.000   0.098  -0.000  -0.167
  0.000   0.000  -0.000  -0.000  -0.000   0.000   0.000   0.000   0.008   0.000  -0.014   0.000   0.000  -0.005   0.000   0.009
 total augmentation occupancy for first ion, spin component:           2
 -0.002   0.000   0.000  -0.009  -0.000   0.000  -0.000   0.000   0.000   0.000  -0.000   0.000  -0.000   0.000   0.000  -0.000
  0.000  -0.002   0.000  -0.000  -0.009   0.000   0.000   0.000   0.000   0.000   0.000  -0.000  -0.000  -0.000   0.000  -0.000
  0.000   0.000  -0.002   0.000   0.000  -0.009  -0.000   0.000   0.000   0.000   0.000  -0.000   0.000   0.000  -0.000  -0.000
 -0.009  -0.000   0.000  -0.005   0.000   0.000   0.000  -0.000   0.000  -0.000   0.000   0.000   0.000  -0.000  -0.000   0.000
 -0.000  -0.009   0.000   0.000  -0.005  -0.000  -0.000  -0.000  -0.000   0.000  -0.000   0.000  -0.000   0.000   0.000   0.000
  0.000   0.000  -0.009   0.000  -0.000  -0.010  -0.000  -0.000   0.000  -0.000   0.000  -0.000  -0.000   0.000   0.000   0.000
 -0.000   0.000  -0.000   0.000  -0.000  -0.000   2.352  -0.000   0.000   0.000  -0.000  -1.042   0.000  -0.000   0.000  -0.000
  0.000   0.000   0.000  -0.000  -0.000  -0.000  -0.000   1.997  -0.000   0.000  -0.000  -0.000  -0.727  -0.000   0.000  -0.000
  0.000   0.000   0.000   0.000  -0.000   0.000   0.000  -0.000   2.655  -0.000   0.084  -0.000   0.000  -1.124   0.000  -0.090
  0.000   0.000   0.000  -0.000   0.000  -0.000   0.000   0.000  -0.000   2.341   0.000  -0.000   0.000  -0.000  -1.036   0.000
 -0.000   0.000   0.000   0.000  -0.000   0.000  -0.000  -0.000   0.084   0.000   2.552  -0.000  -0.000  -0.090  -0.000  -1.015
  0.000  -0.000  -0.000   0.000   0.000  -0.000  -1.042  -0.000  -0.000  -0.000  -0.000   0.252   0.000  -0.000   0.000  -0.000
 -0.000  -0.000   0.000   0.000  -0.000  -0.000   0.000  -0.727   0.000   0.000  -0.000   0.000  -0.019  -0.000   0.000  -0.000
  0.000  -0.000   0.000  -0.000   0.000   0.000  -0.000  -0.000  -1.124  -0.000  -0.090  -0.000  -0.000   0.321  -0.000   0.104
  0.000   0.000  -0.000  -0.000   0.000   0.000   0.000   0.000   0.000  -1.036  -0.000   0.000   0.000  -0.000   0.247   0.000
 -0.000  -0.000  -0.000   0.000   0.000   0.000  -0.000  -0.000  -0.090   0.000  -1.015  -0.000  -0.000   0.104   0.000   0.198
  0.000  -0.000  -0.000   0.000  -0.000   0.000   0.000   0.000  -0.031   0.000   0.050   0.000  -0.000   0.031   0.000  -0.051
  0.000  -0.000  -0.000  -0.000   0.000  -0.000   0.000  -0.000   0.003   0.000  -0.005   0.000  -0.000  -0.001  -0.000   0.001


------------------------ aborting loop because EDIFF is reached ----------------------------------------





 total charge

# of ion       s       p       d       tot
------------------------------------------
    1        0.375   6.383   6.093  12.852
    2        0.375   6.383   6.093  12.851
    3        0.375   6.383   6.093  12.852
    4        0.375   6.383   6.093  12.851
    5        0.375   6.383   6.093  12.852
    6        0.375   6.383   6.093  12.852
    7        0.375   6.383   6.093  12.852
    8        0.375   6.383   6.093  12.851
    9        0.375   6.383   6.093  12.852
   10        0.813   0.821   8.079   9.714
   11        0.814   0.821   8.079   9.714
   12        0.814   0.821   8.079   9.714
--------------------------------------------------
tot          5.816  59.913  79.076 144.805



 magnetization (x)

# of ion       s       p       d       tot
------------------------------------------
    1       -0.003  -0.015   2.513   2.495
    2       -0.003  -0.015   2.514   2.496
    3       -0.003  -0.015   2.513   2.495
    4       -0.003  -0.015   2.513   2.495
    5       -0.003  -0.015   2.512   2.494
    6       -0.003  -0.015   2.512   2.494
    7       -0.003  -0.015   2.513   2.495
    8       -0.003  -0.015   2.514   2.496
    9       -0.003  -0.015   2.513   2.495
   10       -0.039  -0.099   0.385   0.248
   11       -0.039  -0.099   0.385   0.248
   12       -0.039  -0.099   0.385   0.248
--------------------------------------------------
tot         -0.146  -0.429  23.774  23.199
 
    FORLOC:  cpu time      0.0009: real time      0.0009
    FORNL :  cpu time      0.6660: real time      0.6702
    STRESS:  cpu time      3.9755: real time      4.0090
    FORCOR:  cpu time      0.0212: real time      0.0213
    OFIELD:  cpu time      0.0001: real time      0.0001

  FORCE on cell =-STRESS in cart. coord.  units (eV):
  Direction    XX          YY          ZZ          XY          YZ          ZX
  --------------------------------------------------------------------------------------
  Alpha Z  1198.52204  1198.52204  1198.52204
  Ewald   -6222.67824 -6222.67824 -6223.02376     0.00000     0.00000    -0.00000
  Hartree  1790.25159  1790.25159  1789.88836    -0.00000    -0.00000    -0.00000
  E(xc)    -947.55177  -947.55177  -947.55253     0.00000    -0.00000     0.00000
  Local    1251.41050  1251.41050  1252.37469    -0.00000     0.00000    -0.00000
  n-local  -194.50662  -207.83032  -201.37747    16.41621    -0.09710    -0.14364
  augment  1435.50707  1435.50707  1435.44613     0.00000     0.00000     0.00000
  Kinetic  1719.02743  1708.00993  1713.43351     0.80368     0.42142     0.45389
  Fock        0.00000     0.00000     0.00000     0.00000     0.00000     0.00000
  -------------------------------------------------------------------------------------
  Total      17.81139    17.81139    17.71095     0.00000     0.00000     0.00000
  in kB     200.96488   200.96488   199.83158     0.00000     0.00000     0.00000
  external pressure =      200.59 kB  Pullay stress =        0.00 kB


 VOLUME and BASIS-vectors are now :
 -----------------------------------------------------------------------------
  energy-cutoff  :      520.00
  volume of cell :      142.00
      direct lattice vectors                 reciprocal lattice vectors
     3.616969510  0.000000000  0.000000000     0.276474545  0.000000000  0.000000000
     0.000000000  3.616969510  0.000000000     0.000000000  0.276474545  0.000000000
     0.000000000  0.000000000 10.854220721     0.000000000  0.000000000  0.092130059

  length of vectors
     3.616969510  3.616969510 10.854220721     0.276474545  0.276474545  0.092130059


 FORCES acting on ions:
    Electron-Ion                     Ewald-Force                    Non-Local-Force
 -----------------------------------------------------------------------------------------------
   -.919E-13 0.988E-12 0.178E+00   0.131E-13 -.538E-14 -.180E+00   -.133E-21 -.128E-20 0.201E-03
   -.917E-13 0.111E-11 0.317E-11   0.344E-13 0.150E-13 0.568E-13   -.645E-24 0.102E-22 0.181E-22
   -.917E-13 0.825E-12 -.178E+00   0.303E-13 0.245E-13 0.180E+00   0.195E-21 -.139E-20 -.201E-03
   0.108E-11 0.784E-11 0.478E-11   0.780E-14 -.264E-13 0.114E-12   -.232E-24 0.271E-24 0.197E-22
   0.106E-11 0.702E-11 -.873E+00   -.891E-14 -.402E-14 0.869E+00   0.189E-21 0.374E-20 0.113E-01
   0.107E-11 0.705E-11 0.873E+00   -.403E-13 -.113E-13 -.869E+00   0.227E-23 0.354E-20 -.113E-01
   0.110E-11 -.626E-13 0.178E+00   -.239E-13 0.111E-13 -.180E+00   -.769E-21 0.377E-22 0.201E-03
   0.110E-11 -.666E-13 0.586E-11   -.444E-15 0.156E-13 -.568E-13   -.375E-23 -.974E-24 0.195E-22
   0.109E-11 -.696E-13 -.178E+00   -.113E-13 0.274E-13 0.180E+00   -.665E-21 0.586E-23 -.201E-03
   -.637E-13 -.489E-13 -.188E-12   -.160E-13 0.223E-13 0.227E-12   0.180E-23 0.149E-23 0.110E-23
   -.635E-13 -.494E-13 -.533E+00   0.164E-13 -.151E-13 0.530E+00   0.748E-22 0.458E-21 0.900E-02
   -.637E-13 -.497E-13 0.533E+00   0.336E-14 -.193E-13 -.530E+00   0.176E-21 -.560E-21 -.900E-02
 -----------------------------------------------------------------------------------------------
   0.609E-11 0.246E-10 0.274E-10   0.445E-14 0.344E-13 0.200E-12   -.932E-21 0.457E-20 0.000E+00
 
 
 POSITION                                       TOTAL-FORCE (eV/Angst)
 -----------------------------------------------------------------------------------
      0.00000      1.80848      1.80914        -0.000000     -0.000000     -0.001138
      0.00000      1.80848      5.42711        -0.000000      0.000000      0.000000
      0.00000      1.80848      9.04508        -0.000000     -0.000000      0.001138
      1.80848      1.80848      0.00000         0.000000      0.000000      0.000000
      1.80848      1.80848      3.61764         0.000000     -0.000000      0.006292
      1.80848      1.80848      7.23658        -0.000000      0.000000     -0.006292
      1.80848      0.00000      1.80914         0.000000      0.000000     -0.001138
      1.80848      0.00000      5.42711         0.000000      0.000000      0.000000
      1.80848      0.00000      9.04508        -0.000000      0.000000      0.001138
      0.00000      0.00000      0.00000        -0.000000      0.000000      0.000000
      0.00000      0.00000      3.61781        -0.000000      0.000000      0.005486
      0.00000      0.00000      7.23641        -0.000000      0.000000     -0.005486
 -----------------------------------------------------------------------------------
    total drift:                                0.000000      0.000000      0.000000


--------------------------------------------------------------------------------------------------------



  FREE ENERGIE OF THE ION-ELECTRON SYSTEM (eV)
  ---------------------------------------------------
  free  energy   TOTEN  =       -92.67302760 eV

  energy  without entropy=      -92.69238945  energy(sigma->0) =      -92.67948155
 


--------------------------------------------------------------------------------------------------------


    POTLOK:  cpu time      0.0358: real time      0.0360


--------------------------------------------------------------------------------------------------------




--------------------------------------------------------------------------------------------------------


  
 reached required accuracy - stopping structural energy minimisation
     LOOP+:  cpu time    204.2367: real time    206.4327
    4ORBIT:  cpu time      0.0000: real time      0.0000



 total charge

# of ion       s       p       d       tot
------------------------------------------
    1        0.375   6.383   6.093  12.852
    2        0.375   6.383   6.093  12.851
    3        0.375   6.383   6.093  12.852
    4        0.375   6.383   6.093  12.851
    5        0.375   6.383   6.093  12.852
    6        0.375   6.383   6.093  12.852
    7        0.375   6.383   6.093  12.852
    8        0.375   6.383   6.093  12.851
    9        0.375   6.383   6.093  12.852
   10        0.813   0.821   8.079   9.714
   11        0.814   0.821   8.079   9.714
   12        0.814   0.821   8.079   9.714
--------------------------------------------------
tot          5.816  59.913  79.076 144.805



 magnetization (x)

# of ion       s       p       d       tot
------------------------------------------
    1       -0.003  -0.015   2.513   2.495
    2       -0.003  -0.015   2.514   2.496
    3       -0.003  -0.015   2.513   2.495
    4       -0.003  -0.015   2.513   2.495
    5       -0.003  -0.015   2.512   2.494
    6       -0.003  -0.015   2.512   2.494
    7       -0.003  -0.015   2.513   2.495
    8       -0.003  -0.015   2.514   2.496
    9       -0.003  -0.015   2.513   2.495
   10       -0.039  -0.099   0.385   0.248
   11       -0.039  -0.099   0.385   0.248
   12       -0.039  -0.099   0.385   0.248
--------------------------------------------------
tot         -0.146  -0.429  23.774  23.199
 

 total amount of memory used by VASP MPI-rank0   264608. kBytes
=======================================================================

   base      :      30000. kBytes
   nonl-proj :      94414. kBytes
   fftplans  :        888. kBytes
   grid      :       6813. kBytes
   one-center:        373. kBytes
   wavefun   :     132120. kBytes
 
  
  
 General timing and accounting informations for this job:
 ========================================================
  
                  Total CPU time used (sec):      222.523
                            User time (sec):      215.621
                          System time (sec):        6.902
                         Elapsed time (sec):      230.685
  
                   Maximum memory used (kb):     1119056.
                   Average memory used (kb):          N/A
  
                          Minor page faults:       188479
                          Major page faults:          153
                 Voluntary context switches:         8965
