       N       E                     dE             d eps       ncg     rms          ort
DAV:   1     0.179222359521E+04    0.17922E+04   -0.92170E+04 10752   0.193E+03
DAV:   2     0.115840796950E+02   -0.17806E+04   -0.16899E+04 10752   0.481E+02
DAV:   3    -0.973406202283E+02   -0.10892E+03   -0.10766E+03 10752   0.128E+02
DAV:   4    -0.990193826467E+02   -0.16788E+01   -0.16785E+01 10752   0.157E+01
DAV:   5    -0.990558549994E+02   -0.36472E-01   -0.36471E-01 10752   0.224E+00
SDA:   6    -0.479230367504E+02    0.51133E+02   -0.36471E-01 10752   0.284E+03 0.000E+00
CGA:   7    -0.783839333596E+02   -0.30461E+02   -0.26674E+02 10752   0.139E+03 0.303E+02
CGA:   8    -0.848574194052E+02   -0.64735E+01   -0.51686E+01 10752   0.171E+02 0.338E+02
CGA:   9    -0.874543405265E+02   -0.25969E+01   -0.25174E+01 10752   0.409E+02 0.486E-01
CGA:  10    -0.886288381087E+02   -0.11745E+01   -0.77549E+00 10752   0.204E+02 0.213E+02
CGA:  11    -0.893540654403E+02   -0.72523E+00   -0.70747E+00 10752   0.803E+01 0.470E+00
CGA:  12    -0.904182974013E+02   -0.10642E+01   -0.10574E+01 10752   0.664E+01-0.357E-01
CGA:  13    -0.909878939379E+02   -0.56960E+00   -0.56325E+00 10752   0.977E+01 0.428E-01
CGA:  14    -0.915146592587E+02   -0.52677E+00   -0.48329E+00 10752   0.373E+01 0.822E+00
CGA:  15    -0.920507196995E+02   -0.53606E+00   -0.53422E+00 10752   0.226E+01-0.187E-01
CGA:  16    -0.921056331165E+02   -0.54913E-01   -0.52614E-01 10752   0.415E+00 0.926E-01
CGA:  17    -0.921846940235E+02   -0.79061E-01   -0.79334E-01 10752   0.174E+01-0.517E-02
CGA:  18    -0.922491023191E+02   -0.64408E-01   -0.63254E-01 10752   0.710E+00 0.239E-01
CGA:  19    -0.922908124750E+02   -0.41710E-01   -0.41173E-01 10752   0.527E+00 0.575E-02
CGA:  20    -0.923068820507E+02   -0.16070E-01   -0.16045E-01 10752   0.202E+00 0.837E-03
CGA:  21    -0.923272444302E+02   -0.20362E-01   -0.20316E-01 10752   0.534E+00 0.242E-04
CGA:  22    -0.923494132897E+02   -0.22169E-01   -0.21780E-01 10752   0.177E+00 0.882E-02
CGA:  23    -0.923584050935E+02   -0.89918E-02   -0.88825E-02 10752   0.248E+00 0.190E-02
CGA:  24    -0.923750819542E+02   -0.16677E-01   -0.16580E-01 10752   0.175E+00 0.971E-03
CGA:  25    -0.923814070634E+02   -0.63251E-02   -0.63542E-02 10752   0.127E+00-0.434E-03
CGA:  26    -0.923873008424E+02   -0.58938E-02   -0.58480E-02 10752   0.384E-01 0.801E-03
CGA:  27    -0.923884801398E+02   -0.11793E-02   -0.11685E-02 10752   0.277E-01 0.342E-03
CGA:  28    -0.923917979887E+02   -0.33178E-02   -0.33213E-02 10752   0.493E-01-0.191E-03
CGA:  29    -0.923930554283E+02   -0.12574E-02   -0.12584E-02 10752   0.138E-01-0.131E-04
CGA:  30    -0.923937842226E+02   -0.72879E-03   -0.72494E-03 10752   0.103E-01 0.191E-04
CGA:  31    -0.923940609233E+02   -0.27670E-03   -0.27258E-03 10752   0.360E-02 0.748E-04
CGA:  32    -0.923943832969E+02   -0.32237E-03   -0.32159E-03 10752   0.929E-02-0.568E-04
CGA:  33    -0.923946959877E+02   -0.31269E-03   -0.30878E-03 10752   0.234E-02-0.553E-04
CGA:  34    -0.923947854728E+02   -0.89485E-04   -0.88753E-04 10752   0.290E-02-0.435E-05
CGA:  35    -0.923950498708E+02   -0.26440E-03   -0.26435E-03 10752   0.413E-02-0.194E-04
CGA:  36    -0.923951533561E+02   -0.10349E-03   -0.10189E-03 10752   0.122E-02 0.428E-04
CGA:  37    -0.923952105172E+02   -0.57161E-04   -0.56966E-04 10752   0.125E-02 0.108E-04
CGA:  38    -0.923952522943E+02   -0.41777E-04   -0.41904E-04 10752   0.698E-03 0.134E-04
CGA:  39    -0.923952995955E+02   -0.47301E-04   -0.47494E-04 10752   0.165E-02 0.190E-04
CGA:  40    -0.923953676132E+02   -0.68018E-04   -0.68812E-04 10752   0.371E-03 0.305E-04
SDA:  41    -0.923953750625E+02   -0.74493E-05   -0.76628E-05 10752   0.116E-03 0.118E-04
CGA:  42    -0.923953830134E+02   -0.79509E-05   -0.79958E-05 10752   0.952E-04 0.108E-04
CGA:  43    -0.923953866396E+02   -0.36262E-05   -0.37700E-05 10752   0.237E-04 0.952E-05
CGA:  44    -0.923953876594E+02   -0.10198E-05   -0.10900E-05 10752  -0.562E-06 0.769E-05
CGA:  45    -0.923953867015E+02    0.95794E-06   -0.35887E-08 10752  -0.449E-05-0.615E-05
   1 F= -.92395387E+02 E0= -.92395124E+02  d E =-.923954E+02  mag=     8.7718
       N       E                     dE             d eps       ncg     rms          ort
SDA:   1    -0.916773099350E+02    0.71808E+00    0.00000E+00 10752   0.235E+01 0.000E+00
CGA:   2    -0.918175387435E+02   -0.14023E+00   -0.14017E+00 10752   0.381E+01-0.148E-02
CGA:   3    -0.921754785091E+02   -0.35794E+00   -0.35780E+00 10752   0.152E+01 0.493E-02
CGA:   4    -0.922884111070E+02   -0.11293E+00   -0.11293E+00 10752   0.625E+00 0.633E-03
CGA:   5    -0.923425305381E+02   -0.54119E-01   -0.54136E-01 10752   0.119E+01-0.967E-03
CGA:   6    -0.923887796768E+02   -0.46249E-01   -0.46389E-01 10752   0.102E+00-0.161E-02
CGA:   7    -0.924002608095E+02   -0.11481E-01   -0.11461E-01 10752   0.945E-01 0.421E-03
CGA:   8    -0.924096987900E+02   -0.94380E-02   -0.94313E-02 10752   0.148E+00 0.200E-03
CGA:   9    -0.924149496912E+02   -0.52509E-02   -0.52379E-02 10752   0.191E-01 0.217E-03
CGA:  10    -0.924172439225E+02   -0.22942E-02   -0.22952E-02 10752   0.219E-01-0.159E-04
CGA:  11    -0.924189488078E+02   -0.17049E-02   -0.17049E-02 10752   0.281E-01-0.202E-04
CGA:  12    -0.924198724088E+02   -0.92360E-03   -0.92470E-03 10752   0.320E-02-0.354E-04
CGA:  13    -0.924204723500E+02   -0.59994E-03   -0.59924E-03 10752   0.173E-02 0.762E-05
CGA:  14    -0.924205517991E+02   -0.79449E-04   -0.79535E-04 10752   0.158E-02 0.357E-05
CGA:  15    -0.924206731765E+02   -0.12138E-03   -0.12139E-03 10752   0.812E-03 0.891E-05
CGA:  16    -0.924207350957E+02   -0.61919E-04   -0.61933E-04 10752   0.341E-03 0.612E-05
CGA:  17    -0.924207477664E+02   -0.12671E-04   -0.12666E-04 10752   0.258E-03 0.443E-06
CGA:  18    -0.924207831113E+02   -0.35345E-04   -0.35676E-04 10752   0.140E-03-0.487E-05
CGA:  19    -0.924207933677E+02   -0.10256E-04   -0.10254E-04 10752   0.763E-04-0.158E-06
CGA:  20    -0.924207968330E+02   -0.34654E-05   -0.34879E-05 10752   0.737E-04 0.103E-05
CGA:  21    -0.924208077451E+02   -0.10912E-04   -0.10643E-04 10752   0.343E-04 0.444E-05
CGA:  22    -0.924208096099E+02   -0.18648E-05   -0.18705E-05 10752   0.299E-04 0.422E-06
CGA:  23    -0.924208111166E+02   -0.15067E-05   -0.14973E-05 10752   0.190E-04-0.573E-07
CGA:  24    -0.924208138239E+02   -0.27073E-05   -0.28200E-05 10752   0.698E-05-0.139E-05
CGA:  25    -0.924208141362E+02   -0.31235E-06   -0.32149E-06 10752   0.687E-05 0.438E-06
   2 F= -.92420814E+02 E0= -.92421673E+02  d E =-.254274E-01  mag=     8.7829
       N       E                     dE             d eps       ncg     rms          ort
SDA:   1    -0.862842414385E+02    0.61366E+01    0.00000E+00 10752   0.354E+02 0.000E+00
CGA:   2    -0.874499748746E+02   -0.11657E+01   -0.11390E+01 10752   0.198E+02 0.498E+00
CGA:   3    -0.895555387252E+02   -0.21056E+01   -0.21057E+01 10752   0.196E+02-0.766E-03
CGA:   4    -0.912628977874E+02   -0.17074E+01   -0.17060E+01 10752   0.938E+01 0.883E-01
CGA:   5    -0.915504802366E+02   -0.28758E+00   -0.28374E+00 10752   0.427E+01 0.896E-01
CGA:   6    -0.921938700540E+02   -0.64339E+00   -0.64286E+00 10752   0.812E+00 0.380E-02
CGA:   7    -0.922805446565E+02   -0.86675E-01   -0.86781E-01 10752   0.116E+01-0.274E-02
CGA:   8    -0.923306091133E+02   -0.50064E-01   -0.50117E-01 10752   0.807E+00-0.380E-03
CGA:   9    -0.923946413652E+02   -0.64032E-01   -0.64030E-01 10752   0.223E+00 0.482E-02
CGA:  10    -0.924111822436E+02   -0.16541E-01   -0.16541E-01 10752   0.367E+00 0.531E-04
CGA:  11    -0.924297777443E+02   -0.18596E-01   -0.18611E-01 10752   0.128E+00-0.832E-04
CGA:  12    -0.924395405507E+02   -0.97628E-02   -0.97626E-02 10752   0.423E-01-0.139E-03
CGA:  13    -0.924477589176E+02   -0.82184E-02   -0.82187E-02 10752   0.308E-01 0.231E-04
CGA:  14    -0.924485281852E+02   -0.76927E-03   -0.77243E-03 10752   0.769E-02-0.630E-04
CGA:  15    -0.924500778005E+02   -0.15496E-02   -0.15434E-02 10752   0.851E-02 0.518E-04
CGA:  16    -0.924503903346E+02   -0.31253E-03   -0.31270E-03 10752   0.412E-02 0.820E-05
CGA:  17    -0.924506073726E+02   -0.21704E-03   -0.21708E-03 10752   0.182E-02-0.108E-05
CGA:  18    -0.924509374023E+02   -0.33003E-03   -0.33234E-03 10752   0.745E-03-0.202E-04
CGA:  19    -0.924510186510E+02   -0.81249E-04   -0.81173E-04 10752   0.123E-02 0.504E-05
CGA:  20    -0.924510688479E+02   -0.50197E-04   -0.50358E-04 10752   0.716E-03 0.498E-05
CGA:  21    -0.924511320170E+02   -0.63169E-04   -0.63159E-04 10752   0.240E-03 0.659E-05
CGA:  22    -0.924511625474E+02   -0.30530E-04   -0.30539E-04 10752   0.554E-03 0.102E-05
CGA:  23    -0.924511850789E+02   -0.22532E-04   -0.22486E-04 10752   0.163E-03 0.311E-06
CGA:  24    -0.924511959844E+02   -0.10905E-04   -0.10893E-04 10752   0.532E-04 0.335E-06
CGA:  25    -0.924512029307E+02   -0.69463E-05   -0.69097E-05 10752   0.157E-03 0.161E-05
CGA:  26    -0.924512092465E+02   -0.63159E-05   -0.63525E-05 10752   0.138E-04 0.148E-05
CGA:  27    -0.924512117815E+02   -0.25350E-05   -0.24999E-05 10752   0.308E-04 0.980E-06
CGA:  28    -0.924512129123E+02   -0.11307E-05   -0.11471E-05 10752   0.100E-04 0.799E-06
CGA:  29    -0.924512136411E+02   -0.72882E-06   -0.73841E-06 10752   0.559E-05 0.108E-05
   3 F= -.92451214E+02 E0= -.92453034E+02  d E =-.558269E-01  mag=     8.8109
       N       E                     dE             d eps       ncg     rms          ort
SDA:   1    -0.921090889980E+02    0.34212E+00    0.00000E+00 10752   0.101E+01 0.000E+00
CGA:   2    -0.922130324013E+02   -0.10394E+00   -0.10400E+00 10752   0.290E+01-0.241E-02
CGA:   3    -0.923570441527E+02   -0.14401E+00   -0.14428E+00 10752   0.423E+00-0.130E-02
CGA:   4    -0.924082343108E+02   -0.51190E-01   -0.51137E-01 10752   0.376E+00 0.106E-02
CGA:   5    -0.924300430407E+02   -0.21809E-01   -0.21828E-01 10752   0.357E+00-0.992E-04
CGA:   6    -0.924451783568E+02   -0.15135E-01   -0.15090E-01 10752   0.362E-01 0.559E-03
CGA:   7    -0.924504071141E+02   -0.52288E-02   -0.52309E-02 10752   0.408E-01-0.404E-04
CGA:   8    -0.924536689869E+02   -0.32619E-02   -0.32617E-02 10752   0.351E-01-0.910E-05
CGA:   9    -0.924546250523E+02   -0.95607E-03   -0.95539E-03 10752   0.464E-02 0.251E-04
CGA:  10    -0.924558994758E+02   -0.12744E-02   -0.12725E-02 10752   0.405E-02 0.101E-04
CGA:  11    -0.924560353879E+02   -0.13591E-03   -0.13595E-03 10752   0.201E-02 0.139E-05
CGA:  12    -0.924562110655E+02   -0.17568E-03   -0.17568E-03 10752   0.130E-02 0.294E-05
CGA:  13    -0.924563596858E+02   -0.14862E-03   -0.14854E-03 10752   0.418E-03 0.335E-05
CGA:  14    -0.924563896234E+02   -0.29938E-04   -0.29922E-04 10752   0.439E-03-0.677E-06
CGA:  15    -0.924564089223E+02   -0.19299E-04   -0.19251E-04 10752   0.232E-03-0.970E-06
CGA:  16    -0.924564295137E+02   -0.20591E-04   -0.20593E-04 10752   0.753E-04-0.712E-06
CGA:  17    -0.924564335842E+02   -0.40705E-05   -0.40957E-05 10752   0.105E-03 0.798E-06
CGA:  18    -0.924564412479E+02   -0.76637E-05   -0.76932E-05 10752   0.148E-04 0.227E-05
CGA:  19    -0.924564432878E+02   -0.20399E-05   -0.20359E-05 10752   0.200E-04 0.950E-07
CGA:  20    -0.924564447569E+02   -0.14691E-05   -0.14646E-05 10752   0.250E-04-0.289E-06
CGA:  21    -0.924564457962E+02   -0.10392E-05   -0.10281E-05 10752   0.394E-05-0.199E-06
CGA:  22    -0.924564464724E+02   -0.67627E-06   -0.64235E-06 10752   0.497E-05 0.438E-06
   4 F= -.92456446E+02 E0= -.92458397E+02  d E =-.523283E-02  mag=     8.7884
       N       E                     dE             d eps       ncg     rms          ort
SDA:   1    -0.917252420566E+02    0.73120E+00    0.00000E+00 10752   0.217E+01 0.000E+00
CGA:   2    -0.919588075020E+02   -0.23357E+00   -0.23393E+00 10752   0.587E+01-0.125E-01
CGA:   3    -0.922243684847E+02   -0.26556E+00   -0.26681E+00 10752   0.133E+01-0.100E-01
CGA:   4    -0.923394180381E+02   -0.11505E+00   -0.11504E+00 10752   0.582E+00 0.550E-02
CGA:   5    -0.924230905430E+02   -0.83673E-01   -0.83710E-01 10752   0.369E+00-0.437E-03
CGA:   6    -0.924341932070E+02   -0.11103E-01   -0.11126E-01 10752   0.129E+00-0.528E-03
CGA:   7    -0.924435564720E+02   -0.93633E-02   -0.93583E-02 10752   0.692E-01-0.120E-03
CGA:   8    -0.924518695326E+02   -0.83131E-02   -0.83133E-02 10752   0.112E+00 0.781E-06
CGA:   9    -0.924550671618E+02   -0.31976E-02   -0.31987E-02 10752   0.920E-02-0.146E-04
CGA:  10    -0.924576521598E+02   -0.25850E-02   -0.25827E-02 10752   0.697E-02 0.108E-04
CGA:  11    -0.924580719053E+02   -0.41975E-03   -0.41995E-03 10752   0.586E-02 0.591E-05
CGA:  12    -0.924583085622E+02   -0.23666E-03   -0.23685E-03 10752   0.292E-02 0.584E-05
CGA:  13    -0.924586549242E+02   -0.34636E-03   -0.34612E-03 10752   0.116E-02 0.841E-05
CGA:  14    -0.924587137933E+02   -0.58869E-04   -0.58862E-04 10752   0.113E-02-0.242E-06
CGA:  15    -0.924587818201E+02   -0.68027E-04   -0.67949E-04 10752   0.432E-03-0.248E-05
CGA:  16    -0.924588265914E+02   -0.44771E-04   -0.44815E-04 10752   0.122E-03-0.255E-05
CGA:  17    -0.924588469132E+02   -0.20322E-04   -0.19996E-04 10752   0.200E-03 0.434E-05
CGA:  18    -0.924588530655E+02   -0.61523E-05   -0.62382E-05 10752   0.391E-04 0.139E-05
CGA:  19    -0.924588568766E+02   -0.38110E-05   -0.38117E-05 10752   0.385E-04 0.129E-06
CGA:  20    -0.924588603319E+02   -0.34553E-05   -0.34554E-05 10752   0.591E-04-0.155E-06
CGA:  21    -0.924588625542E+02   -0.22223E-05   -0.22142E-05 10752   0.920E-05-0.831E-07
CGA:  22    -0.924588636796E+02   -0.11254E-05   -0.11209E-05 10752   0.203E-04 0.193E-06
CGA:  23    -0.924588646929E+02   -0.10133E-05   -0.10235E-05 10752   0.111E-04 0.289E-06
CGA:  24    -0.924588655519E+02   -0.85899E-06   -0.86198E-06 10752   0.257E-05 0.298E-06
   5 F= -.92458866E+02 E0= -.92460923E+02  d E =-.765191E-02  mag=     8.7543
       N       E                     dE             d eps       ncg     rms          ort
SDA:   1    -0.920412955060E+02    0.41757E+00    0.00000E+00 10752   0.189E+01 0.000E+00
CGA:   2    -0.921163156035E+02   -0.75020E-01   -0.74167E-01 10752   0.169E+01 0.123E-01
CGA:   3    -0.922988890473E+02   -0.18257E+00   -0.18260E+00 10752   0.107E+01-0.395E-03
CGA:   4    -0.923864021233E+02   -0.87513E-01   -0.87535E-01 10752   0.469E+00 0.486E-02
CGA:   5    -0.924077905501E+02   -0.21388E-01   -0.21393E-01 10752   0.420E+00-0.152E-03
CGA:   6    -0.924447424945E+02   -0.36952E-01   -0.36947E-01 10752   0.977E-01 0.515E-03
CGA:   7    -0.924520035532E+02   -0.72611E-02   -0.72604E-02 10752   0.357E-01-0.196E-04
CGA:   8    -0.924546804536E+02   -0.26769E-02   -0.26770E-02 10752   0.698E-01 0.881E-05
CGA:   9    -0.924593676122E+02   -0.46872E-02   -0.46873E-02 10752   0.902E-02 0.101E-04
CGA:  10    -0.924600484263E+02   -0.68081E-03   -0.68072E-03 10752   0.139E-01-0.635E-05
CGA:  11    -0.924608085873E+02   -0.76016E-03   -0.76036E-03 10752   0.852E-02 0.172E-05
CGA:  12    -0.924614501559E+02   -0.64157E-03   -0.64157E-03 10752   0.186E-02 0.227E-07
CGA:  13    -0.924617138633E+02   -0.26371E-03   -0.26346E-03 10752   0.304E-02 0.422E-05
CGA:  14    -0.924618068498E+02   -0.92987E-04   -0.92977E-04 10752   0.499E-03 0.278E-05
CGA:  15    -0.924618728359E+02   -0.65986E-04   -0.65938E-04 10752   0.444E-03 0.124E-05
CGA:  16    -0.924619043958E+02   -0.31560E-04   -0.31561E-04 10752   0.503E-03 0.377E-06
CGA:  17    -0.924619226262E+02   -0.18230E-04   -0.18236E-04 10752   0.732E-04 0.236E-06
CGA:  18    -0.924619345579E+02   -0.11932E-04   -0.11949E-04 10752   0.154E-03-0.432E-07
CGA:  19    -0.924619406101E+02   -0.60522E-05   -0.60521E-05 10752   0.608E-04 0.111E-06
CGA:  20    -0.924619441192E+02   -0.35090E-05   -0.35150E-05 10752   0.162E-04 0.344E-06
CGA:  21    -0.924619483551E+02   -0.42360E-05   -0.42476E-05 10752   0.300E-04 0.336E-07
CGA:  22    -0.924619492646E+02   -0.90950E-06   -0.91280E-06 10752   0.888E-05 0.137E-06
CGA:  23    -0.924619502893E+02   -0.10246E-05   -0.10204E-05 10752   0.818E-05 0.224E-06
CGA:  24    -0.924619510670E+02   -0.77776E-06   -0.77800E-06 10752   0.852E-05-0.662E-07
   6 F= -.92461951E+02 E0= -.92463851E+02  d E =-.308552E-02  mag=     8.7238
       N       E                     dE             d eps       ncg     rms          ort
SDA:   1    -0.923045409228E+02    0.15741E+00    0.00000E+00 10752   0.639E+00 0.000E+00
CGA:   2    -0.923329701265E+02   -0.28429E-01   -0.28264E-01 10752   0.699E+00 0.166E-02
CGA:   3    -0.924053416997E+02   -0.72372E-01   -0.72368E-01 10752   0.362E+00 0.220E-03
CGA:   4    -0.924344938337E+02   -0.29152E-01   -0.29161E-01 10752   0.170E+00 0.104E-02
CGA:   5    -0.924431126602E+02   -0.86188E-02   -0.86193E-02 10752   0.176E+00-0.407E-04
CGA:   6    -0.924565314975E+02   -0.13419E-01   -0.13420E-01 10752   0.316E-01 0.844E-04
CGA:   7    -0.924589826385E+02   -0.24511E-02   -0.24511E-02 10752   0.147E-01 0.342E-05
CGA:   8    -0.924600676744E+02   -0.10850E-02   -0.10850E-02 10752   0.275E-01 0.226E-05
CGA:   9    -0.924617636276E+02   -0.16960E-02   -0.16962E-02 10752   0.347E-02 0.805E-05
CGA:  10    -0.924620699144E+02   -0.30629E-03   -0.30631E-03 10752   0.537E-02-0.124E-05
CGA:  11    -0.924623446026E+02   -0.27469E-03   -0.27476E-03 10752   0.333E-02 0.100E-05
CGA:  12    -0.924625807988E+02   -0.23620E-03   -0.23619E-03 10752   0.740E-03-0.132E-05
CGA:  13    -0.924627048871E+02   -0.12409E-03   -0.12404E-03 10752   0.738E-03 0.765E-06
CGA:  14    -0.924627264170E+02   -0.21530E-04   -0.21519E-04 10752   0.216E-03 0.471E-06
CGA:  15    -0.924627517074E+02   -0.25290E-04   -0.25264E-04 10752   0.177E-03 0.798E-06
CGA:  16    -0.924627641433E+02   -0.12436E-04   -0.12441E-04 10752   0.196E-03 0.452E-06
CGA:  17    -0.924627713939E+02   -0.72506E-05   -0.72573E-05 10752   0.281E-04 0.226E-06
CGA:  18    -0.924627767791E+02   -0.53852E-05   -0.53984E-05 10752   0.407E-04-0.696E-07
CGA:  19    -0.924627788134E+02   -0.20343E-05   -0.20355E-05 10752   0.247E-04 0.101E-06
CGA:  20    -0.924627798210E+02   -0.10075E-05   -0.10133E-05 10752   0.656E-05 0.159E-06
CGA:  21    -0.924627814515E+02   -0.16305E-05   -0.16249E-05 10752   0.114E-04 0.701E-07
CGA:  22    -0.924627818022E+02   -0.35075E-06   -0.34964E-06 10752   0.381E-05 0.297E-07
   7 F= -.92462782E+02 E0= -.92464512E+02  d E =-.391625E-02  mag=     8.7064
       N       E                     dE             d eps       ncg     rms          ort
SDA:   1    -0.918228262337E+02    0.63996E+00    0.00000E+00 10752   0.265E+01 0.000E+00
CGA:   2    -0.919458057223E+02   -0.12298E+00   -0.12139E+00 10752   0.285E+01 0.153E-01
CGA:   3    -0.921996356881E+02   -0.25383E+00   -0.25382E+00 10752   0.170E+01 0.264E-02
CGA:   4    -0.923484771551E+02   -0.14884E+00   -0.14881E+00 10752   0.647E+00 0.867E-02
CGA:   5    -0.923811176792E+02   -0.32641E-01   -0.32642E-01 10752   0.677E+00-0.144E-03
CGA:   6    -0.924355024939E+02   -0.54385E-01   -0.54391E-01 10752   0.154E+00 0.814E-03
CGA:   7    -0.924470415012E+02   -0.11539E-01   -0.11536E-01 10752   0.467E-01-0.102E-03
CGA:   8    -0.924530268477E+02   -0.59853E-02   -0.59824E-02 10752   0.124E+00 0.552E-04
CGA:   9    -0.924581737075E+02   -0.51469E-02   -0.51461E-02 10752   0.120E-01 0.265E-04
CGA:  10    -0.924596802239E+02   -0.15065E-02   -0.15070E-02 10752   0.137E-01-0.960E-05
CGA:  11    -0.924608786058E+02   -0.11984E-02   -0.11984E-02 10752   0.130E-01 0.155E-05
CGA:  12    -0.924612901423E+02   -0.41154E-03   -0.41157E-03 10752   0.295E-02-0.269E-06
CGA:  13    -0.924617338750E+02   -0.44373E-03   -0.44324E-03 10752   0.257E-02 0.750E-05
CGA:  14    -0.924618117735E+02   -0.77899E-04   -0.77865E-04 10752   0.846E-03 0.325E-05
CGA:  15    -0.924619111445E+02   -0.99371E-04   -0.99329E-04 10752   0.601E-03 0.158E-05
CGA:  16    -0.924619716308E+02   -0.60486E-04   -0.60483E-04 10752   0.356E-03 0.478E-06
CGA:  17    -0.924619829027E+02   -0.11272E-04   -0.11280E-04 10752   0.130E-03 0.223E-06
CGA:  18    -0.924620044402E+02   -0.21538E-04   -0.21572E-04 10752   0.128E-03-0.224E-06
CGA:  19    -0.924620115017E+02   -0.70615E-05   -0.70682E-05 10752   0.826E-04 0.326E-06
CGA:  20    -0.924620145256E+02   -0.30239E-05   -0.30271E-05 10752   0.278E-04 0.221E-06
CGA:  21    -0.924620213270E+02   -0.68014E-05   -0.68021E-05 10752   0.301E-04 0.108E-06
CGA:  22    -0.924620223120E+02   -0.98501E-06   -0.98938E-06 10752   0.132E-04 0.158E-06
CGA:  23    -0.924620240755E+02   -0.17635E-05   -0.17545E-05 10752   0.119E-04 0.291E-06
CGA:  24    -0.924620250936E+02   -0.10181E-05   -0.10183E-05 10752   0.866E-05-0.146E-06
CGA:  25    -0.924620254114E+02   -0.31782E-06   -0.30967E-06 10752   0.404E-05-0.100E-06
   8 F= -.92462025E+02 E0= -.92463270E+02  d E =-.315986E-02  mag=     8.6743
       N       E                     dE             d eps       ncg     rms          ort
SDA:   1    -0.921632744002E+02    0.29875E+00    0.00000E+00 10752   0.113E+01 0.000E+00
CGA:   2    -0.922140412057E+02   -0.50767E-01   -0.51135E-01 10752   0.138E+01-0.407E-02
CGA:   3    -0.923821724778E+02   -0.16813E+00   -0.16816E+00 10752   0.270E+00-0.772E-03
CGA:   4    -0.924384299468E+02   -0.56257E-01   -0.56204E-01 10752   0.386E+00 0.472E-03
CGA:   5    -0.924483251796E+02   -0.98952E-02   -0.98045E-02 10752   0.516E-01 0.297E-02
CGA:   6    -0.924541693877E+02   -0.58442E-02   -0.58435E-02 10752   0.514E-01 0.166E-04
CGA:   7    -0.924581628017E+02   -0.39934E-02   -0.39926E-02 10752   0.548E-01-0.349E-04
CGA:   8    -0.924600489256E+02   -0.18861E-02   -0.18854E-02 10752   0.954E-02-0.680E-05
CGA:   9    -0.924613764618E+02   -0.13275E-02   -0.13278E-02 10752   0.791E-02-0.257E-05
CGA:  10    -0.924621651248E+02   -0.78866E-03   -0.78852E-03 10752   0.464E-02 0.107E-04
CGA:  11    -0.924623340097E+02   -0.16888E-03   -0.16890E-03 10752   0.308E-02 0.356E-05
CGA:  12    -0.924626969697E+02   -0.36296E-03   -0.36267E-03 10752   0.732E-03 0.106E-04
CGA:  13    -0.924627633799E+02   -0.66410E-04   -0.66411E-04 10752   0.762E-03 0.491E-06
CGA:  14    -0.924628058414E+02   -0.42461E-04   -0.42429E-04 10752   0.767E-03-0.833E-06
CGA:  15    -0.924628538340E+02   -0.47993E-04   -0.47959E-04 10752   0.797E-04-0.139E-05
CGA:  16    -0.924628666784E+02   -0.12844E-04   -0.12812E-04 10752   0.290E-03 0.527E-06
CGA:  17    -0.924628779570E+02   -0.11279E-04   -0.11287E-04 10752   0.302E-04 0.270E-06
CGA:  18    -0.924628813638E+02   -0.34068E-05   -0.34211E-05 10752   0.259E-04-0.477E-06
CGA:  19    -0.924628841876E+02   -0.28238E-05   -0.28381E-05 10752   0.447E-04-0.504E-06
CGA:  20    -0.924628857092E+02   -0.15216E-05   -0.15195E-05 10752   0.108E-04 0.383E-07
CGA:  21    -0.924628870064E+02   -0.12972E-05   -0.12689E-05 10752   0.824E-05 0.100E-05
CGA:  22    -0.924628877638E+02   -0.75739E-06   -0.76113E-06 10752   0.860E-05 0.621E-06
   9 F= -.92462888E+02 E0= -.92464486E+02  d E =-.402221E-02  mag=     8.6955
       N       E                     dE             d eps       ncg     rms          ort
SDA:   1    -0.923383573716E+02    0.12453E+00    0.00000E+00 10752   0.381E+00 0.000E+00
CGA:   2    -0.923658915065E+02   -0.27534E-01   -0.27505E-01 10752   0.763E+00-0.657E-03
CGA:   3    -0.924205799153E+02   -0.54688E-01   -0.54708E-01 10752   0.250E+00 0.393E-03
CGA:   4    -0.924391728370E+02   -0.18593E-01   -0.18599E-01 10752   0.145E+00 0.194E-03
CGA:   5    -0.924469631199E+02   -0.77903E-02   -0.77889E-02 10752   0.160E+00-0.104E-04
CGA:   6    -0.924585212247E+02   -0.11558E-01   -0.11560E-01 10752   0.137E-01 0.669E-04
CGA:   7    -0.924616675091E+02   -0.31463E-02   -0.31453E-02 10752   0.144E-01 0.541E-05
CGA:   8    -0.924623389006E+02   -0.67139E-03   -0.67204E-03 10752   0.944E-02-0.742E-05
CGA:   9    -0.924628080289E+02   -0.46913E-03   -0.46884E-03 10752   0.478E-02-0.993E-06
CGA:  10    -0.924634183117E+02   -0.61028E-03   -0.61030E-03 10752   0.280E-02-0.329E-06
CGA:  11    -0.924635117130E+02   -0.93401E-04   -0.93406E-04 10752   0.151E-02 0.345E-06
CGA:  12    -0.924636999760E+02   -0.18826E-03   -0.18820E-03 10752   0.838E-03 0.163E-05
CGA:  13    -0.924637606298E+02   -0.60654E-04   -0.60673E-04 10752   0.226E-03 0.147E-05
CGA:  14    -0.924637758176E+02   -0.15188E-04   -0.15186E-04 10752   0.371E-03-0.720E-07
CGA:  15    -0.924638032871E+02   -0.27469E-04   -0.27466E-04 10752   0.636E-04-0.270E-06
CGA:  16    -0.924638085066E+02   -0.52195E-05   -0.52184E-05 10752   0.569E-04 0.116E-06
CGA:  17    -0.924638111358E+02   -0.26293E-05   -0.26297E-05 10752   0.494E-04 0.325E-07
CGA:  18    -0.924638159332E+02   -0.47974E-05   -0.47985E-05 10752   0.938E-05 0.155E-07
CGA:  19    -0.924638166508E+02   -0.71758E-06   -0.71691E-06 10752   0.163E-04-0.180E-06
  10 F= -.92463817E+02 E0= -.92465311E+02  d E =-.928887E-03  mag=     8.6898
       N       E                     dE             d eps       ncg     rms          ort
SDA:   1    -0.924555752200E+02    0.82407E-02    0.00000E+00 10752   0.258E-01 0.000E+00
CGA:   2    -0.924583225798E+02   -0.27474E-02   -0.27488E-02 10752   0.355E-01-0.444E-04
CGA:   3    -0.924602677151E+02   -0.19451E-02   -0.19461E-02 10752   0.353E-01-0.147E-05
CGA:   4    -0.924622427969E+02   -0.19751E-02   -0.19746E-02 10752   0.569E-02-0.575E-05
CGA:   5    -0.924631893385E+02   -0.94654E-03   -0.94687E-03 10752   0.935E-02-0.426E-05
CGA:   6    -0.924634606252E+02   -0.27129E-03   -0.27136E-03 10752   0.149E-02-0.175E-05
CGA:   7    -0.924635966041E+02   -0.13598E-03   -0.13598E-03 10752   0.970E-03 0.454E-06
CGA:   8    -0.924637360479E+02   -0.13944E-03   -0.13928E-03 10752   0.359E-03 0.268E-05
CGA:   9    -0.924637727591E+02   -0.36711E-04   -0.36718E-04 10752   0.249E-03-0.459E-06
CGA:  10    -0.924637931267E+02   -0.20368E-04   -0.20367E-04 10752   0.392E-03-0.210E-06
CGA:  11    -0.924638088928E+02   -0.15766E-04   -0.15748E-04 10752   0.530E-04-0.295E-06
CGA:  12    -0.924638181485E+02   -0.92558E-05   -0.92752E-05 10752   0.948E-04-0.218E-06
CGA:  13    -0.924638207394E+02   -0.25909E-05   -0.25904E-05 10752   0.116E-04-0.101E-07
CGA:  14    -0.924638224147E+02   -0.16753E-05   -0.16717E-05 10752   0.117E-04 0.632E-07
CGA:  15    -0.924638235449E+02   -0.11302E-05   -0.11297E-05 10752   0.187E-05 0.286E-07
CGA:  16    -0.924638239389E+02   -0.39399E-06   -0.39483E-06 10752   0.227E-05-0.213E-08
  11 F= -.92463824E+02 E0= -.92465285E+02  d E =-.936175E-03  mag=     8.6884
       N       E                     dE             d eps       ncg     rms          ort
SDA:   1    -0.924317763922E+02    0.32047E-01    0.00000E+00 10752   0.162E+00 0.000E+00
CGA:   2    -0.924370471049E+02   -0.52707E-02   -0.52335E-02 10752   0.105E+00 0.826E-03
CGA:   3    -0.924546608500E+02   -0.17614E-01   -0.17613E-01 10752   0.405E-01 0.153E-04
CGA:   4    -0.924583662599E+02   -0.37054E-02   -0.37054E-02 10752   0.571E-01 0.600E-05
CGA:   5    -0.924610037887E+02   -0.26375E-02   -0.26371E-02 10752   0.287E-01-0.332E-05
CGA:   6    -0.924628527184E+02   -0.18489E-02   -0.18490E-02 10752   0.383E-02 0.369E-05
CGA:   7    -0.924633054640E+02   -0.45275E-03   -0.45277E-03 10752   0.691E-02-0.338E-06
CGA:   8    -0.924635854613E+02   -0.28000E-03   -0.27985E-03 10752   0.332E-02 0.161E-05
CGA:   9    -0.924638239994E+02   -0.23854E-03   -0.23854E-03 10752   0.734E-03-0.132E-06
CGA:  10    -0.924639433949E+02   -0.11940E-03   -0.11953E-03 10752   0.117E-02-0.177E-05
CGA:  11    -0.924639827976E+02   -0.39403E-04   -0.39421E-04 10752   0.379E-03-0.673E-07
CGA:  12    -0.924640133131E+02   -0.30515E-04   -0.30522E-04 10752   0.216E-03 0.950E-06
CGA:  13    -0.924640391293E+02   -0.25816E-04   -0.25786E-04 10752   0.119E-03 0.102E-05
CGA:  14    -0.924640423703E+02   -0.32410E-05   -0.32428E-05 10752   0.345E-04 0.824E-07
CGA:  15    -0.924640493487E+02   -0.69784E-05   -0.70011E-05 10752   0.163E-04-0.194E-06
CGA:  16    -0.924640502270E+02   -0.87831E-06   -0.87743E-06 10752   0.150E-04-0.112E-07
  12 F= -.92464050E+02 E0= -.92465466E+02  d E =-.226288E-03  mag=     8.6780
       N       E                     dE             d eps       ncg     rms          ort
SDA:   1    -0.924045228077E+02    0.59527E-01    0.00000E+00 10752   0.212E+00 0.000E+00
CGA:   2    -0.924149401842E+02   -0.10417E-01   -0.10376E-01 10752   0.281E+00 0.303E-03
CGA:   3    -0.924459651764E+02   -0.31025E-01   -0.31024E-01 10752   0.788E-01 0.197E-04
CGA:   4    -0.924527063481E+02   -0.67412E-02   -0.67412E-02 10752   0.116E+00 0.197E-05
CGA:   5    -0.924581994557E+02   -0.54931E-02   -0.54929E-02 10752   0.532E-01-0.596E-05
CGA:   6    -0.924618070024E+02   -0.36075E-02   -0.36069E-02 10752   0.660E-02-0.838E-05
CGA:   7    -0.924628003458E+02   -0.99334E-03   -0.99319E-03 10752   0.142E-01 0.266E-05
CGA:   8    -0.924633038406E+02   -0.50349E-03   -0.50319E-03 10752   0.478E-02 0.710E-05
CGA:   9    -0.924636508060E+02   -0.34697E-03   -0.34700E-03 10752   0.156E-02-0.590E-06
CGA:  10    -0.924638364191E+02   -0.18561E-03   -0.18565E-03 10752   0.292E-02-0.970E-06
CGA:  11    -0.924639445727E+02   -0.10815E-03   -0.10819E-03 10752   0.645E-03-0.268E-07
CGA:  12    -0.924640045915E+02   -0.60019E-04   -0.60018E-04 10752   0.419E-03 0.349E-06
CGA:  13    -0.924640511030E+02   -0.46512E-04   -0.46467E-04 10752   0.275E-03 0.180E-05
CGA:  14    -0.924640584999E+02   -0.73969E-05   -0.74024E-05 10752   0.654E-04 0.259E-06
CGA:  15    -0.924640718669E+02   -0.13367E-04   -0.13424E-04 10752   0.472E-04-0.422E-06
CGA:  16    -0.924640735882E+02   -0.17213E-05   -0.17219E-05 10752   0.254E-04 0.303E-07
CGA:  17    -0.924640754103E+02   -0.18221E-05   -0.18240E-05 10752   0.159E-04 0.103E-06
CGA:  18    -0.924640773739E+02   -0.19637E-05   -0.19579E-05 10752   0.734E-05 0.173E-06
CGA:  19    -0.924640776275E+02   -0.25357E-06   -0.25137E-06 10752   0.411E-05-0.829E-08
  13 F= -.92464078E+02 E0= -.92465422E+02  d E =-.253689E-03  mag=     8.6635
