       N       E                     dE             d eps       ncg     rms          rms(c)
DAV:   1     0.177408165709E+04    0.17741E+04   -0.85624E+04 43008   0.175E+03
DAV:   2     0.626713259771E+01   -0.17678E+04   -0.16796E+04 43040   0.476E+02
DAV:   3    -0.102328033697E+03   -0.10860E+03   -0.10714E+03 50464   0.127E+02
DAV:   4    -0.104008389296E+03   -0.16804E+01   -0.16800E+01 46016   0.157E+01
DAV:   5    -0.104044371721E+03   -0.35982E-01   -0.35981E-01 52576   0.222E+00    0.349E+01
DAV:   6    -0.115907443748E+03   -0.11863E+02   -0.18045E+02 51680   0.685E+01    0.760E+01
DAV:   7    -0.106789858962E+03    0.91176E+01   -0.40667E+02 52416   0.553E+01    0.602E+01
DAV:   8    -0.943839757572E+02    0.12406E+02   -0.10248E+02 51296   0.415E+01    0.245E+01
DAV:   9    -0.101774700644E+03   -0.73907E+01   -0.98178E+01 52192   0.328E+01    0.533E+01
DAV:  10    -0.926741847391E+02    0.91005E+01   -0.10521E+02 51936   0.226E+01    0.171E+01
DAV:  11    -0.925244981726E+02    0.14969E+00   -0.16053E+01 50976   0.131E+01    0.150E+01
DAV:  12    -0.923916879640E+02    0.13281E+00   -0.55150E+00 51488   0.812E+00    0.803E+00
DAV:  13    -0.927282845833E+02   -0.33660E+00   -0.38279E+00 51456   0.743E+00    0.116E+01
DAV:  14    -0.924768075845E+02    0.25148E+00   -0.27547E+00 51520   0.645E+00    0.533E+00
DAV:  15    -0.924096150490E+02    0.67193E-01   -0.48250E-01 51392   0.372E+00    0.241E+00
DAV:  16    -0.924983401024E+02   -0.88725E-01   -0.75997E-01 51680   0.352E+00    0.445E+00
DAV:  17    -0.924584952020E+02    0.39845E-01   -0.69413E-01 51488   0.345E+00    0.255E+00
DAV:  18    -0.924588028042E+02   -0.30760E-03   -0.92494E-02 51936   0.137E+00    0.123E+00
DAV:  19    -0.924591176581E+02   -0.31485E-03   -0.48349E-02 52512   0.858E-01    0.729E-01
DAV:  20    -0.924643631897E+02   -0.52455E-02   -0.13203E-02 52736   0.520E-01    0.725E-01
DAV:  21    -0.924653605227E+02   -0.99733E-03   -0.81999E-03 53280   0.390E-01    0.293E-01
DAV:  22    -0.924659786115E+02   -0.61809E-03   -0.19217E-03 52224   0.161E-01    0.236E-01
DAV:  23    -0.924660381992E+02   -0.59588E-04   -0.36135E-04 51072   0.938E-02    0.158E-01
DAV:  24    -0.924660242661E+02    0.13933E-04   -0.46404E-04 51520   0.839E-02    0.615E-02
DAV:  25    -0.924660557648E+02   -0.31499E-04   -0.11353E-04 53408   0.418E-02    0.395E-02
DAV:  26    -0.924660664724E+02   -0.10708E-04   -0.25571E-05 51872   0.254E-02    0.240E-02
DAV:  27    -0.924660668186E+02   -0.34617E-06   -0.98505E-06 47296   0.144E-02
   1 F= -.92466067E+02 E0= -.92466067E+02  d E =0.000000E+00  mag=     8.5956
