 vasp.6.4.3 19Mar24 (build Mar 26 2024 14:05:37) complex                        
  
 executed on             LinuxIFC date 2024.12.16  20:08:55
 running  128 mpi-ranks, on    1 nodes
 distrk:  each k-point on   32 cores,    4 groups
 distr:  one band on NCORE=   1 cores,   32 groups


--------------------------------------------------------------------------------------------------------


 INCAR:
   ALGO = All
   EDIFF = 1e-06
   EDIFFG = -0.01
   ENCUT = 520
   GGA = Pe
   IBRION = 2
   ISIF = 4
   ISMEAR = 1
   ISPIN = 2
   KPAR = 4
   LCHARG = True
   LORBIT = 11
   LREAL = False
   LWAVE = False
   MAGMOM = 1*-2.848 1*2.812 1*2.842 1*-2.853 1*2.807 1*2.919 1*-2.848 1*2.812 1*2.842 1*-0.045 1*0.028 1*0.275
   NELM = 200
   NSW = 100
   PREC = Accurate
   SIGMA = 0.2

 POTCAR:    PAW_PBE Fe_pv 02Aug2007               
 POTCAR:    PAW_PBE Pt 04Feb2005                  
 -----------------------------------------------------------------------------
|                                                                             |
|           W    W    AA    RRRRR   N    N  II  N    N   GGGG   !!!           |
|           W    W   A  A   R    R  NN   N  II  NN   N  G    G  !!!           |
|           W    W  A    A  R    R  N N  N  II  N N  N  G       !!!           |
|           W WW W  AAAAAA  RRRRR   N  N N  II  N  N N  G  GGG   !            |
|           WW  WW  A    A  R   R   N   NN  II  N   NN  G    G                |
|           W    W  A    A  R    R  N    N  II  N    N   GGGG   !!!           |
|                                                                             |
|     For optimal performance we recommend to set                             |
|       NCORE = 2 up to number-of-cores-per-socket                            |
|     NCORE specifies how many cores store one orbital (NPAR=cpu/NCORE).      |
|     This setting can greatly improve the performance of VASP for DFT.       |
|     The default, NCORE=1 might be grossly inefficient on modern             |
|     multi-core architectures or massively parallel machines. Do your        |
|     own testing! More info at https://www.vasp.at/wiki/index.php/NCORE      |
|     Unfortunately you need to use the default for GW and RPA                |
|     calculations (for HF NCORE is supported but not extensively tested      |
|     yet).                                                                   |
|                                                                             |
 -----------------------------------------------------------------------------

 POTCAR:    PAW_PBE Fe_pv 02Aug2007               
   SHA256 =  5d22e414b1f82158bf2c7ecb8b97b28fd0923e48cadc1c3bf74d524558f5dd32 Fe_pv/POTCAR          
   COPYR  = (c) Copyright 02Aug2007 Georg Kresse                                                    
   COPYR  = This file is part of the software VASP. Any use, copying, and all other rights are regul
   COPYR  = If you do not have a valid VASP license, you may not use, copy or distribute this file. 
   VRHFIN =Fe:  3pd7s1                                                                              
   LEXCH  = PE                                                                                      
   EATOM  =  2457.4239 eV,  180.6156 Ry                                                             
                                                                                                    
   TITEL  = PAW_PBE Fe_pv 02Aug2007                                                                 
   LULTRA =        F    use ultrasoft PP ?                                                          
   IUNSCR =        1    unscreen: 0-lin 1-nonlin 2-no                                               
   RPACOR =    1.750    partial core radius                                                         
   POMASS =   55.847; ZVAL   =   14.000    mass and valenz                                          
   RCORE  =    2.200    outmost cutoff radius                                                       
   RWIGS  =    2.200; RWIGS  =    1.164    wigner-seitz radius (au A)                               
   ENMAX  =  293.238; ENMIN  =  219.928 eV                                                          
   ICORE  =        3    local potential                                                             
   LCOR   =        T    correct aug charges                                                         
   LPAW   =        T    paw PP                                                                      
   EAUG   =  578.342                                                                                
   DEXC   =    0.000                                                                                
   RMAX   =    2.249    core radius for proj-oper                                                   
   RAUG   =    1.300    factor for augmentation sphere                                              
   RDEP   =    2.296    radius for radial grids                                                     
   RDEPT  =    1.766    core radius for aug-charge                                                  
                                                                                                    
   Atomic configuration                                                                             
    8 entries                                                                                       
     n  l   j            E        occ.                                                              
     1  0  0.50     -6993.8440   2.0000                                                             
     2  0  0.50      -814.6047   2.0000                                                             
     2  1  1.50      -693.3689   6.0000                                                             
     3  0  0.50       -89.4732   2.0000                                                             
     3  1  1.50       -55.6373   6.0000                                                             
     3  2  2.50        -3.8151   7.0000                                                             
     4  0  0.50        -4.2551   1.0000                                                             
     4  3  2.50        -1.3606   0.0000                                                             
   Description                                                                                      
     l       E           TYP  RCUT    TYP  RCUT                                                     
     1    -55.6372668     23  2.000                                                                 
     1     -5.4423304     23  2.000                                                                 
     2     -3.8151096     23  2.200                                                                 
     2     -5.1756922     23  2.200                                                                 
     0     -4.2550951     23  2.200                                                                 
     0     27.2116520     23  2.200                                                                 
     3     -1.3605826     23  2.200                                                                 
  local pseudopotential read in
  partial core-charges read in
  partial kinetic energy density read in
  atomic valenz-charges read in
  non local Contribution for L=           1  read in
    real space projection operators read in
  non local Contribution for L=           1  read in
    real space projection operators read in
  non local Contribution for L=           2  read in
    real space projection operators read in
  non local Contribution for L=           2  read in
    real space projection operators read in
  non local Contribution for L=           0  read in
    real space projection operators read in
  non local Contribution for L=           0  read in
    real space projection operators read in
    PAW grid and wavefunctions read in
 
   number of l-projection  operators is LMAX  =           6
   number of lm-projection operators is LMMAX =          18
 
 POTCAR:    PAW_PBE Pt 04Feb2005                  
   SHA256 =  3ed90460adef76debcff1cfb73ee1349b515b1a3db03439735b44de3a8db7dc8 Pt/POTCAR             
   COPYR  = (c) Copyright 04Feb2005 Georg Kresse                                                    
   COPYR  = This file is part of the software VASP. Any use, copying, and all other rights are regul
   COPYR  = If you do not have a valid VASP license, you may not use, copy or distribute this file. 
   VRHFIN =Pt: s1d9                                                                                 
   LEXCH  = PE                                                                                      
   EATOM  =   729.1176 eV,   53.5886 Ry                                                             
                                                                                                    
   TITEL  = PAW_PBE Pt 04Feb2005                                                                    
   LULTRA =        F    use ultrasoft PP ?                                                          
   IUNSCR =        1    unscreen: 0-lin 1-nonlin 2-no                                               
   RPACOR =    2.330    partial core radius                                                         
   POMASS =  195.080; ZVAL   =   10.000    mass and valenz                                          
   RCORE  =    2.600    outmost cutoff radius                                                       
   RWIGS  =    2.750; RWIGS  =    1.455    wigner-seitz radius (au A)                               
   ENMAX  =  230.283; ENMIN  =  172.712 eV                                                          
   ICORE  =        3    local potential                                                             
   LCOR   =        T    correct aug charges                                                         
   LPAW   =        T    paw PP                                                                      
   EAUG   =  358.966                                                                                
   DEXC   =    0.000                                                                                
   RMAX   =    2.658    core radius for proj-oper                                                   
   RAUG   =    1.300    factor for augmentation sphere                                              
   RDEP   =    2.761    radius for radial grids                                                     
   RDEPT  =    2.203    core radius for aug-charge                                                  
                                                                                                    
   Atomic configuration                                                                             
   16 entries                                                                                       
     n  l   j            E        occ.                                                              
     1  0  0.50    -78401.1885   2.0000                                                             
     2  0  0.50    -13770.7750   2.0000                                                             
     2  1  1.50    -11931.0468   6.0000                                                             
     3  0  0.50     -3234.7234   2.0000                                                             
     3  1  1.50     -2699.2216   6.0000                                                             
     3  2  2.50     -2119.5714  10.0000                                                             
     4  0  0.50      -695.1528   2.0000                                                             
     4  1  1.50      -519.6034   6.0000                                                             
     4  2  2.50      -306.6786  10.0000                                                             
     4  3  3.50       -70.1041  14.0000                                                             
     5  0  0.50      -101.7747   2.0000                                                             
     5  1  1.50       -55.9873   6.0000                                                             
     5  2  2.50        -6.1423   9.0000                                                             
     6  0  0.50        -5.6573   1.0000                                                             
     6  1  1.50        -6.8029   0.0000                                                             
     5  3  2.50        -1.3606   0.0000                                                             
   Description                                                                                      
     l       E           TYP  RCUT    TYP  RCUT                                                     
     2     -6.1423404     23  2.500                                                                 
     2     -7.5029230     23  2.500                                                                 
     0     -5.6573207     23  2.500                                                                 
     0      0.7416693     23  2.500                                                                 
     1     -2.7211652     23  2.600                                                                 
     1     20.4087390     23  2.600                                                                 
     3     -1.3605826     23  2.500                                                                 
  local pseudopotential read in
  partial core-charges read in
  partial kinetic energy density read in
  atomic valenz-charges read in
  non local Contribution for L=           2  read in
    real space projection operators read in
  non local Contribution for L=           2  read in
    real space projection operators read in
  non local Contribution for L=           0  read in
    real space projection operators read in
  non local Contribution for L=           0  read in
    real space projection operators read in
  non local Contribution for L=           1  read in
    real space projection operators read in
  non local Contribution for L=           1  read in
    real space projection operators read in
    PAW grid and wavefunctions read in
 
   number of l-projection  operators is LMAX  =           6
   number of lm-projection operators is LMMAX =          18
 
  PAW_PBE Fe_pv 02Aug2007               :
 energy of atom  1       EATOM=-2457.4239
 kinetic energy error for atom=    0.0062 (will be added to EATOM!!)
  PAW_PBE Pt 04Feb2005                  :
 energy of atom  2       EATOM= -729.1176
 kinetic energy error for atom=    0.0032 (will be added to EATOM!!)
 
 
 POSCAR: Fe9 Pt3
  positions in direct lattice
  velocities in cartesian coordinates


 exchange-correlation table for PE
   RHO(1)=    0.500       N(1)  =     2000
   RHO(2)=  100.500       N(2)  =     4000
 


--------------------------------------------------------------------------------------------------------


 ion  position               nearest neighbor table
   1  0.000  0.500  0.167-   4 2.66   4 2.66  11 2.69  11 2.69   7 2.71   7 2.71   7 2.71   7 2.71
                            10 2.76  10 2.76
   2  0.000  0.500  0.499-   5 2.63   5 2.63   6 2.70   6 2.70   8 2.71   8 2.71   8 2.71   8 2.71
                            12 2.72  12 2.72  11 2.77  11 2.77
   3  0.000  0.500  0.831-   9 2.71   9 2.71   9 2.71   9 2.71  10 2.72  10 2.72  12 2.73  12 2.73
                             6 2.75   6 2.75
   4  0.500  0.500  0.009-   1 2.66   7 2.66   7 2.66   1 2.66  10 2.72  10 2.72  10 2.72  10 2.72

   5  0.500  0.500  0.345-   2 2.63   8 2.63   8 2.63   2 2.63  11 2.72  11 2.72  11 2.72  11 2.72

   6  0.500  0.500  0.662-   2 2.70   8 2.70   8 2.70   2 2.70  12 2.71  12 2.71  12 2.71  12 2.71
                             9 2.75   3 2.75   9 2.75   3 2.75
   7  0.500  0.000  0.167-   4 2.66   4 2.66  11 2.69  11 2.69   1 2.71   1 2.71   1 2.71   1 2.71
                            10 2.76  10 2.76
   8  0.500  0.000  0.499-   5 2.63   5 2.63   6 2.70   6 2.70   2 2.71   2 2.71   2 2.71   2 2.71
                            12 2.72  12 2.72  11 2.77  11 2.77
   9  0.500  0.000  0.831-   3 2.71   3 2.71   3 2.71   3 2.71  10 2.72  10 2.72  12 2.73  12 2.73
                             6 2.75   6 2.75
  10  0.000  0.000  0.996-   4 2.72   4 2.72   4 2.72   4 2.72   3 2.72   9 2.72   9 2.72   3 2.72
                             1 2.76   7 2.76   7 2.76   1 2.76
  11  0.000  0.000  0.328-   1 2.69   7 2.69   1 2.69   7 2.69   5 2.72   5 2.72   5 2.72   5 2.72
                             2 2.77   2 2.77   8 2.77   8 2.77
  12  0.000  0.000  0.665-   6 2.71   6 2.71   6 2.71   6 2.71   2 2.72   8 2.72   8 2.72   2 2.72
                             3 2.73   3 2.73   9 2.73   9 2.73
 
  LATTYP: Found a simple tetragonal cell.
 ALAT       =     3.8380834694
 C/A-ratio  =     3.0421820584
  
  Lattice vectors:
  
 A1 = (   3.8380834694,   0.0000000000,   0.0000000000)
 A2 = (   0.0000000000,   3.8380834694,   0.0000000000)
 A3 = (   0.0000000000,   0.0000000000,  11.6761486693)


Analysis of symmetry for initial positions (statically):
=====================================================================
 Subroutine PRICEL returns:
 Original cell was already a primitive cell.
 

 Routine SETGRP: Setting up the symmetry group for a 
 simple tetragonal supercell.


 Subroutine GETGRP returns: Found  8 space group operations
 (whereof  8 operations were pure point group operations)
 out of a pool of 16 trial point group operations.


The static configuration has the point symmetry C_4v.


Analysis of symmetry for dynamics (positions and initial velocities):
=====================================================================
 Subroutine PRICEL returns:
 Original cell was already a primitive cell.
 

 Routine SETGRP: Setting up the symmetry group for a 
 simple tetragonal supercell.


 Subroutine GETGRP returns: Found  8 space group operations
 (whereof  8 operations were pure point group operations)
 out of a pool of 16 trial point group operations.


The dynamic configuration has the point symmetry C_4v.


Analysis of structural, dynamic, and magnetic symmetry:
=====================================================================
 Subroutine PRICEL returns:
 Original cell was already a primitive cell.
 

 Routine SETGRP: Setting up the symmetry group for a 
 simple tetragonal supercell.


 Subroutine GETGRP returns: Found  8 space group operations
 (whereof  8 operations were pure point group operations)
 out of a pool of 16 trial point group operations.


The overall configuration has the point symmetry C_4v.


 Subroutine INISYM returns: Found  8 space group operations
 (whereof  8 operations are pure point group operations),
 and found     1 'primitive' translations


----------------------------------------------------------------------------------------

                                     Primitive cell                                     

  volume of cell :     172.0000

  direct lattice vectors                    reciprocal lattice vectors
     3.838083469  0.000000000  0.000000000     0.260546705  0.000000000  0.000000000
     0.000000000  3.838083469  0.000000000     0.000000000  0.260546705  0.000000000
     0.000000000  0.000000000 11.676148669     0.000000000  0.000000000  0.085644679

  length of vectors
     3.838083469  3.838083469 11.676148669     0.260546705  0.260546705  0.085644679

  position of ions in fractional coordinates (direct lattice)
     0.000000000  0.500000000  0.166654539
     0.000000000  0.500000000  0.499396388
     0.000000000  0.500000000  0.831172668
     0.500000000  0.500000000  0.008755399
     0.500000000  0.500000000  0.345137325
     0.500000000  0.500000000  0.662389570
     0.500000000  0.000000000  0.166654539
     0.500000000  0.000000000  0.499396388
     0.500000000  0.000000000  0.831172668
     0.000000000  0.000000000  0.996317369
     0.000000000  0.000000000  0.327915765
     0.000000000  0.000000000  0.665037383

  ion indices of the primitive-cell ions
   primitive index   ion index
                 1           1
                 2           2
                 3           3
                 4           4
                 5           5
                 6           6
                 7           7
                 8           8
                 9           9
                10          10
                11          11
                12          12

----------------------------------------------------------------------------------------

 
 
 KPOINTS: pymatgen with grid density = 8800 / numb

Automatic generation of k-mesh.
 Grid dimensions read from file:
 generate k-points for:   13   13    4

 Generating k-lattice:

  Cartesian coordinates                     Fractional coordinates (reciprocal lattice)
     0.020042054  0.000000000  0.000000000     0.076923077  0.000000000  0.000000000
     0.000000000  0.020042054  0.000000000     0.000000000  0.076923077  0.000000000
     0.000000000  0.000000000  0.021411170     0.000000000  0.000000000  0.250000000

  Length of vectors
     0.020042054  0.020042054  0.021411170

  Shift w.r.t. Gamma in fractional coordinates (k-lattice)
     0.000000000  0.000000000  0.000000000

 
 Subroutine IBZKPT returns following result:
 ===========================================
 
 Found     84 irreducible k-points:
 
 Following reciprocal coordinates:
            Coordinates               Weight
  0.000000  0.000000  0.000000      1.000000
  0.076923  0.000000  0.000000      4.000000
  0.153846  0.000000  0.000000      4.000000
  0.230769  0.000000  0.000000      4.000000
  0.307692  0.000000  0.000000      4.000000
  0.384615  0.000000  0.000000      4.000000
  0.461538  0.000000  0.000000      4.000000
  0.076923  0.076923  0.000000      4.000000
  0.153846  0.076923  0.000000      8.000000
  0.230769  0.076923  0.000000      8.000000
  0.307692  0.076923  0.000000      8.000000
  0.384615  0.076923  0.000000      8.000000
  0.461538  0.076923  0.000000      8.000000
  0.153846  0.153846  0.000000      4.000000
  0.230769  0.153846  0.000000      8.000000
  0.307692  0.153846  0.000000      8.000000
  0.384615  0.153846  0.000000      8.000000
  0.461538  0.153846  0.000000      8.000000
  0.230769  0.230769  0.000000      4.000000
  0.307692  0.230769  0.000000      8.000000
  0.384615  0.230769  0.000000      8.000000
  0.461538  0.230769  0.000000      8.000000
  0.307692  0.307692  0.000000      4.000000
  0.384615  0.307692  0.000000      8.000000
  0.461538  0.307692  0.000000      8.000000
  0.384615  0.384615  0.000000      4.000000
  0.461538  0.384615  0.000000      8.000000
  0.461538  0.461538  0.000000      4.000000
  0.000000  0.000000  0.250000      2.000000
  0.076923  0.000000  0.250000      8.000000
  0.153846  0.000000  0.250000      8.000000
  0.230769  0.000000  0.250000      8.000000
  0.307692  0.000000  0.250000      8.000000
  0.384615  0.000000  0.250000      8.000000
  0.461538  0.000000  0.250000      8.000000
  0.076923  0.076923  0.250000      8.000000
  0.153846  0.076923  0.250000     16.000000
  0.230769  0.076923  0.250000     16.000000
  0.307692  0.076923  0.250000     16.000000
  0.384615  0.076923  0.250000     16.000000
  0.461538  0.076923  0.250000     16.000000
  0.153846  0.153846  0.250000      8.000000
  0.230769  0.153846  0.250000     16.000000
  0.307692  0.153846  0.250000     16.000000
  0.384615  0.153846  0.250000     16.000000
  0.461538  0.153846  0.250000     16.000000
  0.230769  0.230769  0.250000      8.000000
  0.307692  0.230769  0.250000     16.000000
  0.384615  0.230769  0.250000     16.000000
  0.461538  0.230769  0.250000     16.000000
  0.307692  0.307692  0.250000      8.000000
  0.384615  0.307692  0.250000     16.000000
  0.461538  0.307692  0.250000     16.000000
  0.384615  0.384615  0.250000      8.000000
  0.461538  0.384615  0.250000     16.000000
  0.461538  0.461538  0.250000      8.000000
  0.000000  0.000000  0.500000      1.000000
  0.076923  0.000000  0.500000      4.000000
  0.153846  0.000000  0.500000      4.000000
  0.230769  0.000000  0.500000      4.000000
  0.307692  0.000000  0.500000      4.000000
  0.384615  0.000000  0.500000      4.000000
  0.461538  0.000000  0.500000      4.000000
  0.076923  0.076923  0.500000      4.000000
  0.153846  0.076923  0.500000      8.000000
  0.230769  0.076923  0.500000      8.000000
  0.307692  0.076923  0.500000      8.000000
  0.384615  0.076923  0.500000      8.000000
  0.461538  0.076923  0.500000      8.000000
  0.153846  0.153846  0.500000      4.000000
  0.230769  0.153846  0.500000      8.000000
  0.307692  0.153846  0.500000      8.000000
  0.384615  0.153846  0.500000      8.000000
  0.461538  0.153846  0.500000      8.000000
  0.230769  0.230769  0.500000      4.000000
  0.307692  0.230769  0.500000      8.000000
  0.384615  0.230769  0.500000      8.000000
  0.461538  0.230769  0.500000      8.000000
  0.307692  0.307692  0.500000      4.000000
  0.384615  0.307692  0.500000      8.000000
  0.461538  0.307692  0.500000      8.000000
  0.384615  0.384615  0.500000      4.000000
  0.461538  0.384615  0.500000      8.000000
  0.461538  0.461538  0.500000      4.000000
 
 Following cartesian coordinates:
            Coordinates               Weight
  0.000000  0.000000  0.000000      1.000000
  0.020042  0.000000  0.000000      4.000000
  0.040084  0.000000  0.000000      4.000000
  0.060126  0.000000  0.000000      4.000000
  0.080168  0.000000  0.000000      4.000000
  0.100210  0.000000  0.000000      4.000000
  0.120252  0.000000  0.000000      4.000000
  0.020042  0.020042  0.000000      4.000000
  0.040084  0.020042  0.000000      8.000000
  0.060126  0.020042  0.000000      8.000000
  0.080168  0.020042  0.000000      8.000000
  0.100210  0.020042  0.000000      8.000000
  0.120252  0.020042  0.000000      8.000000
  0.040084  0.040084  0.000000      4.000000
  0.060126  0.040084  0.000000      8.000000
  0.080168  0.040084  0.000000      8.000000
  0.100210  0.040084  0.000000      8.000000
  0.120252  0.040084  0.000000      8.000000
  0.060126  0.060126  0.000000      4.000000
  0.080168  0.060126  0.000000      8.000000
  0.100210  0.060126  0.000000      8.000000
  0.120252  0.060126  0.000000      8.000000
  0.080168  0.080168  0.000000      4.000000
  0.100210  0.080168  0.000000      8.000000
  0.120252  0.080168  0.000000      8.000000
  0.100210  0.100210  0.000000      4.000000
  0.120252  0.100210  0.000000      8.000000
  0.120252  0.120252  0.000000      4.000000
  0.000000  0.000000  0.021411      2.000000
  0.020042  0.000000  0.021411      8.000000
  0.040084  0.000000  0.021411      8.000000
  0.060126  0.000000  0.021411      8.000000
  0.080168  0.000000  0.021411      8.000000
  0.100210  0.000000  0.021411      8.000000
  0.120252  0.000000  0.021411      8.000000
  0.020042  0.020042  0.021411      8.000000
  0.040084  0.020042  0.021411     16.000000
  0.060126  0.020042  0.021411     16.000000
  0.080168  0.020042  0.021411     16.000000
  0.100210  0.020042  0.021411     16.000000
  0.120252  0.020042  0.021411     16.000000
  0.040084  0.040084  0.021411      8.000000
  0.060126  0.040084  0.021411     16.000000
  0.080168  0.040084  0.021411     16.000000
  0.100210  0.040084  0.021411     16.000000
  0.120252  0.040084  0.021411     16.000000
  0.060126  0.060126  0.021411      8.000000
  0.080168  0.060126  0.021411     16.000000
  0.100210  0.060126  0.021411     16.000000
  0.120252  0.060126  0.021411     16.000000
  0.080168  0.080168  0.021411      8.000000
  0.100210  0.080168  0.021411     16.000000
  0.120252  0.080168  0.021411     16.000000
  0.100210  0.100210  0.021411      8.000000
  0.120252  0.100210  0.021411     16.000000
  0.120252  0.120252  0.021411      8.000000
  0.000000  0.000000  0.042822      1.000000
  0.020042  0.000000  0.042822      4.000000
  0.040084  0.000000  0.042822      4.000000
  0.060126  0.000000  0.042822      4.000000
  0.080168  0.000000  0.042822      4.000000
  0.100210  0.000000  0.042822      4.000000
  0.120252  0.000000  0.042822      4.000000
  0.020042  0.020042  0.042822      4.000000
  0.040084  0.020042  0.042822      8.000000
  0.060126  0.020042  0.042822      8.000000
  0.080168  0.020042  0.042822      8.000000
  0.100210  0.020042  0.042822      8.000000
  0.120252  0.020042  0.042822      8.000000
  0.040084  0.040084  0.042822      4.000000
  0.060126  0.040084  0.042822      8.000000
  0.080168  0.040084  0.042822      8.000000
  0.100210  0.040084  0.042822      8.000000
  0.120252  0.040084  0.042822      8.000000
  0.060126  0.060126  0.042822      4.000000
  0.080168  0.060126  0.042822      8.000000
  0.100210  0.060126  0.042822      8.000000
  0.120252  0.060126  0.042822      8.000000
  0.080168  0.080168  0.042822      4.000000
  0.100210  0.080168  0.042822      8.000000
  0.120252  0.080168  0.042822      8.000000
  0.100210  0.100210  0.042822      4.000000
  0.120252  0.100210  0.042822      8.000000
  0.120252  0.120252  0.042822      4.000000
 


--------------------------------------------------------------------------------------------------------




 Dimension of arrays:
   k-points           NKPTS =     84   k-points in BZ     NKDIM =     84   number of bands    NBANDS=    128
   number of dos      NEDOS =    301   number of ions     NIONS =     12
   non local maximal  LDIM  =      6   non local SUM 2l+1 LMDIM =     18
   total plane-waves  NPLWV =  81000
   max r-space proj   IRMAX =      1   max aug-charges    IRDMAX=  28719
   dimension x,y,z NGX =    30 NGY =   30 NGZ =   90
   dimension x,y,z NGXF=    60 NGYF=   60 NGZF=  180
   support grid    NGXF=    60 NGYF=   60 NGZF=  180
   ions per type =               9   3
   NGX,Y,Z   is equivalent  to a cutoff of  12.99, 12.99, 12.81 a.u.
   NGXF,Y,Z  is equivalent  to a cutoff of  25.99, 25.99, 25.63 a.u.

 SYSTEM =  unknown system                          
 POSCAR =  Fe9 Pt3                                 

 Startparameter for this run:
   NWRITE =      2    write-flag & timer
   PREC   = accura    normal or accurate (medium, high low for compatibility)
   ISTART =      0    job   : 0-new  1-cont  2-samecut
   ICHARG =      2    charge: 1-file 2-atom 10-const
   ISPIN  =      2    spin polarized calculation?
   LNONCOLLINEAR =      F non collinear calculations
   LSORBIT =      F    spin-orbit coupling
   INIWAV =      1    electr: 0-lowe 1-rand  2-diag
   LASPH  =      F    aspherical Exc in radial PAW
 Electronic Relaxation 1
   ENCUT  =  520.0 eV  38.22 Ry    6.18 a.u.   7.14  7.14 21.71*2*pi/ulx,y,z
   ENINI  =  520.0     initial cutoff
   ENAUG  =  578.3 eV  augmentation charge cutoff
   NELM   =    200;   NELMIN=  2; NELMDL=  0     # of ELM steps 
   EDIFF  = 0.1E-05   stopping-criterion for ELM
   LREAL  =      F    real-space projection
   NLSPLINE    = F    spline interpolate recip. space projectors
   LCOMPAT=      F    compatible to vasp.4.4
   GGA_COMPAT  = T    GGA compatible to vasp.4.4-vasp.4.6
   LMAXPAW     = -100 max onsite density
   LMAXMIX     =    2 max onsite mixed and CHGCAR
   VOSKOWN=      0    Vosko Wilk Nusair interpolation
   ROPT   =    0.00000   0.00000
 Ionic relaxation
   EDIFFG = -.1E-01   stopping-criterion for IOM
   NSW    =    100    number of steps for IOM
   NBLOCK =      1;   KBLOCK =    100    inner block; outer block 
   IBRION =      2    ionic relax: 0-MD 1-quasi-New 2-CG
   NFREE  =      1    steps in history (QN), initial steepest desc. (CG)
   ISIF   =      4    stress and relaxation
   IWAVPR =     11    prediction:  0-non 1-charg 2-wave 3-comb
   ISYM   =      2    0-nonsym 1-usesym 2-fastsym
   LCORR  =      T    Harris-Foulkes like correction to forces

   POTIM  = 0.5000    time-step for ionic-motion
   TEIN   =    0.0    initial temperature
   TEBEG  =    0.0;   TEEND  =   0.0 temperature during run
   SMASS  =  -3.00    Nose mass-parameter (am)
   estimated Nose-frequenzy (Omega)   =  0.10E-29 period in steps = 0.13E+47 mass=  -0.337E-27a.u.
   SCALEE = 1.0000    scale energy and forces
   NPACO  =    256;   APACO  = 10.0  distance and # of slots for P.C.
   PSTRESS=    0.0 pullay stress

  Mass of Ions in am
   POMASS =  55.85195.08
  Ionic Valenz
   ZVAL   =  14.00 10.00
  Atomic Wigner-Seitz radii
   RWIGS  =  -1.00 -1.00
  virtual crystal weights 
   VCA    =   1.00  1.00
   NELECT =     156.0000    total number of electrons
   NUPDOWN=      -1.0000    fix difference up-down

 DOS related values:
   EMIN   =  10.00;   EMAX   =-10.00  energy-range for DOS
   EFERMI =   0.00;   METHOD = LEGACY      
   ISMEAR =     1;   SIGMA  =   0.20  broadening in eV -4-tet -1-fermi 0-gaus

 Electronic relaxation 2 (details)
   IALGO  =     58    algorithm
   LDIAG  =      T    sub-space diagonalisation (order eigenvalues)
   LSUBROT=      F    optimize rotation matrix (better conditioning)
   TURBO    =      0    0=normal 1=particle mesh
   IRESTART =      0    0=no restart 2=restart with 2 vectors
   NREBOOT  =      0    no. of reboots
   NMIN     =      0    reboot dimension
   EREF     =   0.00    reference energy to select bands
   IMIX   =      4    mixing-type and parameters
     AMIX     =   0.40;   BMIX     =  1.00
     AMIX_MAG =   1.60;   BMIX_MAG =  1.00
     AMIN     =   0.10
     WC   =   100.;   INIMIX=   1;  MIXPRE=   1;  MAXMIX= -45

 Intra band minimization:
   WEIMIN = 0.0010     energy-eigenvalue tresh-hold
   EBREAK =  0.20E-08  absolut break condition
   DEPER  =   0.30     relativ break condition  

   TIME   =   0.40     timestep for ELM

  volume/ion in A,a.u.               =      14.33        96.73
  Fermi-wavevector in a.u.,A,eV,Ry     =   1.584675  2.994602 34.166882  2.511195
  Thomas-Fermi vector in A             =   2.684256
 
 Write flags
   LWAVE        =      F    write WAVECAR
   LDOWNSAMPLE  =      F    k-point downsampling of WAVECAR
   LCHARG       =      T    write CHGCAR
   LVTOT        =      F    write LOCPOT, total local potential
   LVHAR        =      F    write LOCPOT, Hartree potential only
   WRT_POTENTIAL= false  ! write potential to hdf5 file
   LELF         =      F    write electronic localiz. function (ELF)
   LORBIT       =     11    0 simple, 1 ext, 2 COOP (PROOUT), +10 PAW based schemes


 Dipole corrections
   LMONO      =      F    monopole corrections only (constant potential shift)
   LDIPOL     =      F    correct potential (dipole corrections)
   IDIPOL     =      0    1-x, 2-y, 3-z, 4-all directions 
   EPSILON    =  1.0000000 bulk dielectric constant
   LVACPOTAV  =      F  vacuum potentials using an averaging scheme for the charge density
   VACPOTFLAT =  0.1000000 required flatness to determine vacuum potential
 Exchange correlation treatment:
   GGA     = PE    functional components
   XC_C    = 1    coefficients multiplying the functional components
   LIBXC   =     F    Libxc                    
   VOSKOWN =     0    Vosko Wilk Nusair interpolation
   LHFCALC =     F    Hartree Fock is set to
   LHFONE  =     F    Hartree Fock one center treatment
   AEXX    =    0.0000 exact exchange contribution

 Parameters of functionals:
   PE:
     No parameter
 
 Van der Waals corrections
   IVDW    =     0    specifies the selected vdW correction

 Linear response parameters
   LEPSILON=     F    determine dielectric tensor
   LRPA    =     F    only Hartree local field effects (RPA)
   LNABLA  =     F    use nabla operator in PAW spheres
   LVEL    =     F    velocity operator in full k-point grid
   CSHIFT  =0.1000    complex shift for real part using Kramers Kronig
   OMEGAMAX=  -1.0    maximum frequency
   DEG_THRESHOLD= 0.2000000E-02 threshold for treating states as degnerate
   RTIME   =   -0.100 relaxation time in fs
  (WPLASMAI=    0.000 imaginary part of plasma frequency in eV, 0.658/RTIME)
   DFIELD  = 0.0000000 0.0000000 0.0000000 field for delta impulse in time
 
  Optional k-point grid parameters
   LKPOINTS_OPT  =     F    use optional k-point grid
   KPOINTS_OPT_MODE=     1    mode for optional k-point grid
 
 Orbital magnetization related:
   ORBITALMAG=     F  switch on orbital magnetization
   LCHIMAG   =     F  perturbation theory with respect to B field
   DQ        =  0.001000  dq finite difference perturbation B field
   LLRAUG    =     F  two centre corrections for induced B field
   LBONE     =     F  B-component reconstruction in AE one-centre
   LVGVCALC  =     T  calculate vGv susceptibility
   LVGVAPPL  =     F  apply vGv susceptibility instead of pGv for G=0

 Random number generation:
   RANDOM_GENERATOR = DEFAULT
   PCG_SEED         = not used


--------------------------------------------------------------------------------------------------------


 conjugate gradient relaxation of ions
 charge density and potential will be updated during run
 spin polarized calculation
 Conjugate gradient for all bands (Freysoldt, et al. PRB 79, 241103 (2009))
 preconditioned conjugated gradient                                        
 perform sub-space diagonalisation
    before iterative eigenvector-optimisation
 modified Broyden-mixing scheme, WC =      100.0
 initial mixing is a Kerker type mixing with AMIX =  0.4000 and BMIX =      1.0000
 Hartree-type preconditioning will be used
 using additional bands           50
 reciprocal scheme for non local part
 use partial core corrections
 no Harris-corrections to forces 
 use gradient corrections 
 use of overlap-Matrix (Vanderbilt PP)
 Methfessel and Paxton  Order N= 1 SIGMA  =   0.20


--------------------------------------------------------------------------------------------------------


  energy-cutoff  :      520.00
  volume of cell :      172.00
      direct lattice vectors                 reciprocal lattice vectors
     3.838083469  0.000000000  0.000000000     0.260546705  0.000000000  0.000000000
     0.000000000  3.838083469  0.000000000     0.000000000  0.260546705  0.000000000
     0.000000000  0.000000000 11.676148669     0.000000000  0.000000000  0.085644679

  length of vectors
     3.838083469  3.838083469 11.676148669     0.260546705  0.260546705  0.085644679


 
 k-points in units of 2pi/SCALE and weight: pymatgen with grid density = 8800 / numb
   0.00000000  0.00000000  0.00000000       0.001
   0.02004205  0.00000000  0.00000000       0.006
   0.04008411  0.00000000  0.00000000       0.006
   0.06012616  0.00000000  0.00000000       0.006
   0.08016822  0.00000000  0.00000000       0.006
   0.10021027  0.00000000  0.00000000       0.006
   0.12025233  0.00000000  0.00000000       0.006
   0.02004205  0.02004205  0.00000000       0.006
   0.04008411  0.02004205  0.00000000       0.012
   0.06012616  0.02004205  0.00000000       0.012
   0.08016822  0.02004205  0.00000000       0.012
   0.10021027  0.02004205  0.00000000       0.012
   0.12025233  0.02004205  0.00000000       0.012
   0.04008411  0.04008411  0.00000000       0.006
   0.06012616  0.04008411  0.00000000       0.012
   0.08016822  0.04008411  0.00000000       0.012
   0.10021027  0.04008411  0.00000000       0.012
   0.12025233  0.04008411  0.00000000       0.012
   0.06012616  0.06012616  0.00000000       0.006
   0.08016822  0.06012616  0.00000000       0.012
   0.10021027  0.06012616  0.00000000       0.012
   0.12025233  0.06012616  0.00000000       0.012
   0.08016822  0.08016822  0.00000000       0.006
   0.10021027  0.08016822  0.00000000       0.012
   0.12025233  0.08016822  0.00000000       0.012
   0.10021027  0.10021027  0.00000000       0.006
   0.12025233  0.10021027  0.00000000       0.012
   0.12025233  0.12025233  0.00000000       0.006
   0.00000000  0.00000000  0.02141117       0.003
   0.02004205  0.00000000  0.02141117       0.012
   0.04008411  0.00000000  0.02141117       0.012
   0.06012616  0.00000000  0.02141117       0.012
   0.08016822  0.00000000  0.02141117       0.012
   0.10021027  0.00000000  0.02141117       0.012
   0.12025233  0.00000000  0.02141117       0.012
   0.02004205  0.02004205  0.02141117       0.012
   0.04008411  0.02004205  0.02141117       0.024
   0.06012616  0.02004205  0.02141117       0.024
   0.08016822  0.02004205  0.02141117       0.024
   0.10021027  0.02004205  0.02141117       0.024
   0.12025233  0.02004205  0.02141117       0.024
   0.04008411  0.04008411  0.02141117       0.012
   0.06012616  0.04008411  0.02141117       0.024
   0.08016822  0.04008411  0.02141117       0.024
   0.10021027  0.04008411  0.02141117       0.024
   0.12025233  0.04008411  0.02141117       0.024
   0.06012616  0.06012616  0.02141117       0.012
   0.08016822  0.06012616  0.02141117       0.024
   0.10021027  0.06012616  0.02141117       0.024
   0.12025233  0.06012616  0.02141117       0.024
   0.08016822  0.08016822  0.02141117       0.012
   0.10021027  0.08016822  0.02141117       0.024
   0.12025233  0.08016822  0.02141117       0.024
   0.10021027  0.10021027  0.02141117       0.012
   0.12025233  0.10021027  0.02141117       0.024
   0.12025233  0.12025233  0.02141117       0.012
   0.00000000  0.00000000  0.04282234       0.001
   0.02004205  0.00000000  0.04282234       0.006
   0.04008411  0.00000000  0.04282234       0.006
   0.06012616  0.00000000  0.04282234       0.006
   0.08016822  0.00000000  0.04282234       0.006
   0.10021027  0.00000000  0.04282234       0.006
   0.12025233  0.00000000  0.04282234       0.006
   0.02004205  0.02004205  0.04282234       0.006
   0.04008411  0.02004205  0.04282234       0.012
   0.06012616  0.02004205  0.04282234       0.012
   0.08016822  0.02004205  0.04282234       0.012
   0.10021027  0.02004205  0.04282234       0.012
   0.12025233  0.02004205  0.04282234       0.012
   0.04008411  0.04008411  0.04282234       0.006
   0.06012616  0.04008411  0.04282234       0.012
   0.08016822  0.04008411  0.04282234       0.012
   0.10021027  0.04008411  0.04282234       0.012
   0.12025233  0.04008411  0.04282234       0.012
   0.06012616  0.06012616  0.04282234       0.006
   0.08016822  0.06012616  0.04282234       0.012
   0.10021027  0.06012616  0.04282234       0.012
   0.12025233  0.06012616  0.04282234       0.012
   0.08016822  0.08016822  0.04282234       0.006
   0.10021027  0.08016822  0.04282234       0.012
   0.12025233  0.08016822  0.04282234       0.012
   0.10021027  0.10021027  0.04282234       0.006
   0.12025233  0.10021027  0.04282234       0.012
   0.12025233  0.12025233  0.04282234       0.006
 
 k-points in reciprocal lattice and weights: pymatgen with grid density = 8800 / numb
   0.00000000  0.00000000  0.00000000       0.001
   0.07692308  0.00000000  0.00000000       0.006
   0.15384615  0.00000000  0.00000000       0.006
   0.23076923  0.00000000  0.00000000       0.006
   0.30769231  0.00000000  0.00000000       0.006
   0.38461538  0.00000000  0.00000000       0.006
   0.46153846  0.00000000  0.00000000       0.006
   0.07692308  0.07692308  0.00000000       0.006
   0.15384615  0.07692308  0.00000000       0.012
   0.23076923  0.07692308  0.00000000       0.012
   0.30769231  0.07692308  0.00000000       0.012
   0.38461538  0.07692308  0.00000000       0.012
   0.46153846  0.07692308  0.00000000       0.012
   0.15384615  0.15384615  0.00000000       0.006
   0.23076923  0.15384615  0.00000000       0.012
   0.30769231  0.15384615  0.00000000       0.012
   0.38461538  0.15384615  0.00000000       0.012
   0.46153846  0.15384615  0.00000000       0.012
   0.23076923  0.23076923  0.00000000       0.006
   0.30769231  0.23076923  0.00000000       0.012
   0.38461538  0.23076923  0.00000000       0.012
   0.46153846  0.23076923  0.00000000       0.012
   0.30769231  0.30769231  0.00000000       0.006
   0.38461538  0.30769231  0.00000000       0.012
   0.46153846  0.30769231  0.00000000       0.012
   0.38461538  0.38461538  0.00000000       0.006
   0.46153846  0.38461538  0.00000000       0.012
   0.46153846  0.46153846  0.00000000       0.006
   0.00000000  0.00000000  0.25000000       0.003
   0.07692308  0.00000000  0.25000000       0.012
   0.15384615  0.00000000  0.25000000       0.012
   0.23076923  0.00000000  0.25000000       0.012
   0.30769231  0.00000000  0.25000000       0.012
   0.38461538  0.00000000  0.25000000       0.012
   0.46153846  0.00000000  0.25000000       0.012
   0.07692308  0.07692308  0.25000000       0.012
   0.15384615  0.07692308  0.25000000       0.024
   0.23076923  0.07692308  0.25000000       0.024
   0.30769231  0.07692308  0.25000000       0.024
   0.38461538  0.07692308  0.25000000       0.024
   0.46153846  0.07692308  0.25000000       0.024
   0.15384615  0.15384615  0.25000000       0.012
   0.23076923  0.15384615  0.25000000       0.024
   0.30769231  0.15384615  0.25000000       0.024
   0.38461538  0.15384615  0.25000000       0.024
   0.46153846  0.15384615  0.25000000       0.024
   0.23076923  0.23076923  0.25000000       0.012
   0.30769231  0.23076923  0.25000000       0.024
   0.38461538  0.23076923  0.25000000       0.024
   0.46153846  0.23076923  0.25000000       0.024
   0.30769231  0.30769231  0.25000000       0.012
   0.38461538  0.30769231  0.25000000       0.024
   0.46153846  0.30769231  0.25000000       0.024
   0.38461538  0.38461538  0.25000000       0.012
   0.46153846  0.38461538  0.25000000       0.024
   0.46153846  0.46153846  0.25000000       0.012
   0.00000000  0.00000000  0.50000000       0.001
   0.07692308  0.00000000  0.50000000       0.006
   0.15384615  0.00000000  0.50000000       0.006
   0.23076923  0.00000000  0.50000000       0.006
   0.30769231  0.00000000  0.50000000       0.006
   0.38461538  0.00000000  0.50000000       0.006
   0.46153846  0.00000000  0.50000000       0.006
   0.07692308  0.07692308  0.50000000       0.006
   0.15384615  0.07692308  0.50000000       0.012
   0.23076923  0.07692308  0.50000000       0.012
   0.30769231  0.07692308  0.50000000       0.012
   0.38461538  0.07692308  0.50000000       0.012
   0.46153846  0.07692308  0.50000000       0.012
   0.15384615  0.15384615  0.50000000       0.006
   0.23076923  0.15384615  0.50000000       0.012
   0.30769231  0.15384615  0.50000000       0.012
   0.38461538  0.15384615  0.50000000       0.012
   0.46153846  0.15384615  0.50000000       0.012
   0.23076923  0.23076923  0.50000000       0.006
   0.30769231  0.23076923  0.50000000       0.012
   0.38461538  0.23076923  0.50000000       0.012
   0.46153846  0.23076923  0.50000000       0.012
   0.30769231  0.30769231  0.50000000       0.006
   0.38461538  0.30769231  0.50000000       0.012
   0.46153846  0.30769231  0.50000000       0.012
   0.38461538  0.38461538  0.50000000       0.006
   0.46153846  0.38461538  0.50000000       0.012
   0.46153846  0.46153846  0.50000000       0.006
 
 position of ions in fractional coordinates (direct lattice) 
   0.00000000  0.50000000  0.16665454
   0.00000000  0.50000000  0.49939639
   0.00000000  0.50000000  0.83117267
   0.50000000  0.50000000  0.00875540
   0.50000000  0.50000000  0.34513733
   0.50000000  0.50000000  0.66238957
   0.50000000  0.00000000  0.16665454
   0.50000000  0.00000000  0.49939639
   0.50000000  0.00000000  0.83117267
   0.00000000  0.00000000  0.99631737
   0.00000000  0.00000000  0.32791576
   0.00000000  0.00000000  0.66503738
 
 position of ions in cartesian coordinates  (Angst):
   0.00000000  1.91904173  1.94588317
   0.00000000  1.91904173  5.83102647
   0.00000000  1.91904173  9.70489564
   1.91904173  1.91904173  0.10222933
   1.91904173  1.91904173  4.02987472
   1.91904173  1.91904173  7.73415910
   1.91904173  0.00000000  1.94588317
   1.91904173  0.00000000  5.83102647
   1.91904173  0.00000000  9.70489564
   0.00000000  0.00000000 11.63314973
   0.00000000  0.00000000  3.82879322
   0.00000000  0.00000000  7.76507535
 


--------------------------------------------------------------------------------------------------------


 k-point     1 :   0.0000 0.0000 0.0000  plane waves:    4595
 k-point     2 :   0.0769 0.0000 0.0000  plane waves:    4587
 k-point     3 :   0.1538 0.0000 0.0000  plane waves:    4606
 k-point     4 :   0.2308 0.0000 0.0000  plane waves:    4630
 k-point     5 :   0.3077 0.0000 0.0000  plane waves:    4650
 k-point     6 :   0.3846 0.0000 0.0000  plane waves:    4638
 k-point     7 :   0.4615 0.0000 0.0000  plane waves:    4630
 k-point     8 :   0.0769 0.0769 0.0000  plane waves:    4584
 k-point     9 :   0.1538 0.0769 0.0000  plane waves:    4600
 k-point    10 :   0.2308 0.0769 0.0000  plane waves:    4632
 k-point    11 :   0.3077 0.0769 0.0000  plane waves:    4648
 k-point    12 :   0.3846 0.0769 0.0000  plane waves:    4652
 k-point    13 :   0.4615 0.0769 0.0000  plane waves:    4649
 k-point    14 :   0.1538 0.1538 0.0000  plane waves:    4604
 k-point    15 :   0.2308 0.1538 0.0000  plane waves:    4622
 k-point    16 :   0.3077 0.1538 0.0000  plane waves:    4637
 k-point    17 :   0.3846 0.1538 0.0000  plane waves:    4637
 k-point    18 :   0.4615 0.1538 0.0000  plane waves:    4616
 k-point    19 :   0.2308 0.2308 0.0000  plane waves:    4636
 k-point    20 :   0.3077 0.2308 0.0000  plane waves:    4634
 k-point    21 :   0.3846 0.2308 0.0000  plane waves:    4626
 k-point    22 :   0.4615 0.2308 0.0000  plane waves:    4629
 k-point    23 :   0.3077 0.3077 0.0000  plane waves:    4634
 k-point    24 :   0.3846 0.3077 0.0000  plane waves:    4642
 k-point    25 :   0.4615 0.3077 0.0000  plane waves:    4637
 k-point    26 :   0.3846 0.3846 0.0000  plane waves:    4654
 k-point    27 :   0.4615 0.3846 0.0000  plane waves:    4650
 k-point    28 :   0.4615 0.4615 0.0000  plane waves:    4648
 k-point    29 :   0.0000 0.0000 0.2500  plane waves:    4599
 k-point    30 :   0.0769 0.0000 0.2500  plane waves:    4598
 k-point    31 :   0.1538 0.0000 0.2500  plane waves:    4604
 k-point    32 :   0.2308 0.0000 0.2500  plane waves:    4630
 k-point    33 :   0.3077 0.0000 0.2500  plane waves:    4635
 k-point    34 :   0.3846 0.0000 0.2500  plane waves:    4640
 k-point    35 :   0.4615 0.0000 0.2500  plane waves:    4636
 k-point    36 :   0.0769 0.0769 0.2500  plane waves:    4602
 k-point    37 :   0.1538 0.0769 0.2500  plane waves:    4606
 k-point    38 :   0.2308 0.0769 0.2500  plane waves:    4622
 k-point    39 :   0.3077 0.0769 0.2500  plane waves:    4638
 k-point    40 :   0.3846 0.0769 0.2500  plane waves:    4642
 k-point    41 :   0.4615 0.0769 0.2500  plane waves:    4641
 k-point    42 :   0.1538 0.1538 0.2500  plane waves:    4616
 k-point    43 :   0.2308 0.1538 0.2500  plane waves:    4626
 k-point    44 :   0.3077 0.1538 0.2500  plane waves:    4641
 k-point    45 :   0.3846 0.1538 0.2500  plane waves:    4634
 k-point    46 :   0.4615 0.1538 0.2500  plane waves:    4638
 k-point    47 :   0.2308 0.2308 0.2500  plane waves:    4634
 k-point    48 :   0.3077 0.2308 0.2500  plane waves:    4634
 k-point    49 :   0.3846 0.2308 0.2500  plane waves:    4633
 k-point    50 :   0.4615 0.2308 0.2500  plane waves:    4631
 k-point    51 :   0.3077 0.3077 0.2500  plane waves:    4629
 k-point    52 :   0.3846 0.3077 0.2500  plane waves:    4630
 k-point    53 :   0.4615 0.3077 0.2500  plane waves:    4632
 k-point    54 :   0.3846 0.3846 0.2500  plane waves:    4639
 k-point    55 :   0.4615 0.3846 0.2500  plane waves:    4638
 k-point    56 :   0.4615 0.4615 0.2500  plane waves:    4651
 k-point    57 :   0.0000 0.0000 0.5000  plane waves:    4596
 k-point    58 :   0.0769 0.0000 0.5000  plane waves:    4598
 k-point    59 :   0.1538 0.0000 0.5000  plane waves:    4612
 k-point    60 :   0.2308 0.0000 0.5000  plane waves:    4626
 k-point    61 :   0.3077 0.0000 0.5000  plane waves:    4636
 k-point    62 :   0.3846 0.0000 0.5000  plane waves:    4634
 k-point    63 :   0.4615 0.0000 0.5000  plane waves:    4628
 k-point    64 :   0.0769 0.0769 0.5000  plane waves:    4614
 k-point    65 :   0.1538 0.0769 0.5000  plane waves:    4610
 k-point    66 :   0.2308 0.0769 0.5000  plane waves:    4622
 k-point    67 :   0.3077 0.0769 0.5000  plane waves:    4638
 k-point    68 :   0.3846 0.0769 0.5000  plane waves:    4634
 k-point    69 :   0.4615 0.0769 0.5000  plane waves:    4640
 k-point    70 :   0.1538 0.1538 0.5000  plane waves:    4614
 k-point    71 :   0.2308 0.1538 0.5000  plane waves:    4622
 k-point    72 :   0.3077 0.1538 0.5000  plane waves:    4622
 k-point    73 :   0.3846 0.1538 0.5000  plane waves:    4636
 k-point    74 :   0.4615 0.1538 0.5000  plane waves:    4638
 k-point    75 :   0.2308 0.2308 0.5000  plane waves:    4622
 k-point    76 :   0.3077 0.2308 0.5000  plane waves:    4640
 k-point    77 :   0.3846 0.2308 0.5000  plane waves:    4632
 k-point    78 :   0.4615 0.2308 0.5000  plane waves:    4638
 k-point    79 :   0.3077 0.3077 0.5000  plane waves:    4624
 k-point    80 :   0.3846 0.3077 0.5000  plane waves:    4624
 k-point    81 :   0.4615 0.3077 0.5000  plane waves:    4642
 k-point    82 :   0.3846 0.3846 0.5000  plane waves:    4650
 k-point    83 :   0.4615 0.3846 0.5000  plane waves:    4648
 k-point    84 :   0.4615 0.4615 0.5000  plane waves:    4636

 maximum and minimum number of plane-waves per node :      4654     4584

 maximum number of plane-waves:      4654
 maximum index in each direction: 
   IXMAX=    7   IYMAX=    7   IZMAX=   21
   IXMIN=   -7   IYMIN=   -7   IZMIN=  -22


 serial   3D FFT for wavefunctions
 parallel 3D FFT for charge:
    minimum data exchange during FFTs selected (reduces bandwidth)


 total amount of memory used by VASP MPI-rank0   311525. kBytes
=======================================================================

   base      :      30000. kBytes
   nonl-proj :     113922. kBytes
   fftplans  :       1055. kBytes
   grid      :       8252. kBytes
   one-center:        373. kBytes
   wavefun   :     157923. kBytes
 
     INWAV:  cpu time      0.0000: real time      0.0004
 Broyden mixing: mesh for mixing (old mesh)
   NGX = 15   NGY = 15   NGZ = 43
  (NGX  = 60   NGY  = 60   NGZ  =180)
  gives a total of   9675 points

 initial charge density was supplied:
 charge density of overlapping atoms calculated
 number of electron     156.0000000 magnetization       8.7430000
 charge density for first step will be calculated from the start-wavefunctions


--------------------------------------------------------------------------------------------------------


 Maximum index for augmentation-charges         1101 (set IRDMAX)


--------------------------------------------------------------------------------------------------------


 First call to EWALD:  gamma=   0.319
 Maximum number of real-space cells 4x 4x 2
 Maximum number of reciprocal cells 2x 2x 5

    FEWALD:  cpu time      0.0024: real time      0.0025


--------------------------------------- Ionic step        1  -------------------------------------------




--------------------------------------- Iteration      1(   1)  ---------------------------------------


    POTLOK:  cpu time      0.0360: real time      0.0365
    SETDIJ:  cpu time      0.0156: real time      0.0161
    TRIAL :  cpu time      6.6450: real time      6.6946
    CORREC:  cpu time      0.0028: real time      0.0028
    --------------------------------------------
      LOOP:  cpu time      6.7984: real time      6.8885

 eigenvalue-minimisations  : 43008
 total energy-change (2. order) : 0.1774080E+04  (-0.9190500E+04)
 number of electron     156.0000000 magnetization       8.7430000
 augmentation part      156.0000000 magnetization       8.7430000

 Free energy of the ion-electron system (eV)
  ---------------------------------------------------
  alpha Z        PSCENC =       989.47749747
  Ewald energy   TEWEN  =    -17495.22275337
  -Hartree energ DENC   =     -6308.98954811
  -exchange      EXHF   =         0.00000000
  -V(xc)+E(xc)   XCENC  =       653.75783083
  PAW double counting   =     20093.29468325   -20817.15564120
  entropy T*S    EENTRO =         0.00153485
  eigenvalues    EBANDS =       354.81393857
  atomic energy  EATOM  =     24304.10294433
  ---------------------------------------------------
  free energy    TOTEN  =      1774.08048661 eV

  energy without entropy =     1774.07895176  energy(sigma->0) =     1774.07997499


--------------------------------------------------------------------------------------------------------




--------------------------------------- Iteration      1(   2)  ---------------------------------------


    TRIAL :  cpu time      6.6982: real time      6.7467
    CORREC:  cpu time      0.0025: real time      0.0026
    --------------------------------------------
      LOOP:  cpu time      6.7158: real time      6.7704

 eigenvalue-minimisations  : 43040
 total energy-change (2. order) :-0.1767816E+04  (-0.1679529E+04)
 number of electron     156.0000000 magnetization       8.7430000
 augmentation part      156.0000000 magnetization       8.7430000

 Free energy of the ion-electron system (eV)
  ---------------------------------------------------
  alpha Z        PSCENC =       989.47749747
  Ewald energy   TEWEN  =    -17495.22275337
  -Hartree energ DENC   =     -6308.98954811
  -exchange      EXHF   =         0.00000000
  -V(xc)+E(xc)   XCENC  =       653.75783083
  PAW double counting   =     20093.29468325   -20817.15564120
  entropy T*S    EENTRO =        -0.00094252
  eigenvalues    EBANDS =     -1412.99963886
  atomic energy  EATOM  =     24304.10294433
  ---------------------------------------------------
  free energy    TOTEN  =         6.26443180 eV

  energy without entropy =        6.26537433  energy(sigma->0) =        6.26474598


--------------------------------------------------------------------------------------------------------




--------------------------------------- Iteration      1(   3)  ---------------------------------------


    TRIAL :  cpu time      7.9665: real time      8.0216
    CORREC:  cpu time      0.0025: real time      0.0025
    --------------------------------------------
      LOOP:  cpu time      7.9908: real time      8.0462

 eigenvalue-minimisations  : 50464
 total energy-change (2. order) :-0.1085928E+03  (-0.1071357E+03)
 number of electron     156.0000000 magnetization       8.7430000
 augmentation part      156.0000000 magnetization       8.7430000

 Free energy of the ion-electron system (eV)
  ---------------------------------------------------
  alpha Z        PSCENC =       989.47749747
  Ewald energy   TEWEN  =    -17495.22275337
  -Hartree energ DENC   =     -6308.98954811
  -exchange      EXHF   =         0.00000000
  -V(xc)+E(xc)   XCENC  =       653.75783083
  PAW double counting   =     20093.29468325   -20817.15564120
  entropy T*S    EENTRO =        -0.00507887
  eigenvalues    EBANDS =     -1521.58830805
  atomic energy  EATOM  =     24304.10294433
  ---------------------------------------------------
  free energy    TOTEN  =      -102.32837373 eV

  energy without entropy =     -102.32329486  energy(sigma->0) =     -102.32668078


--------------------------------------------------------------------------------------------------------




--------------------------------------- Iteration      1(   4)  ---------------------------------------


    TRIAL :  cpu time      7.1458: real time      7.1978
    CORREC:  cpu time      0.0025: real time      0.0026
    --------------------------------------------
      LOOP:  cpu time      7.1695: real time      7.2218

 eigenvalue-minimisations  : 46016
 total energy-change (2. order) :-0.1680344E+01  (-0.1679985E+01)
 number of electron     156.0000000 magnetization       8.7430000
 augmentation part      156.0000000 magnetization       8.7430000

 Free energy of the ion-electron system (eV)
  ---------------------------------------------------
  alpha Z        PSCENC =       989.47749747
  Ewald energy   TEWEN  =    -17495.22275337
  -Hartree energ DENC   =     -6308.98954811
  -exchange      EXHF   =         0.00000000
  -V(xc)+E(xc)   XCENC  =       653.75783083
  PAW double counting   =     20093.29468325   -20817.15564120
  entropy T*S    EENTRO =        -0.00501096
  eigenvalues    EBANDS =     -1523.26872027
  atomic energy  EATOM  =     24304.10294433
  ---------------------------------------------------
  free energy    TOTEN  =      -104.00871804 eV

  energy without entropy =     -104.00370708  energy(sigma->0) =     -104.00704772


--------------------------------------------------------------------------------------------------------




--------------------------------------- Iteration      1(   5)  ---------------------------------------


    TRIAL :  cpu time      8.2964: real time      8.3562
    CORREC:  cpu time      0.0025: real time      0.0026
    CHARGE:  cpu time      0.2276: real time      0.2297
    --------------------------------------------
      LOOP:  cpu time      8.5414: real time      8.6101

 eigenvalue-minimisations  : 52576
 total energy-change (2. order) :-0.3598300E-01  (-0.3598203E-01)
 number of electron     155.9999851 magnetization       7.9343567
 augmentation part       79.2941922 magnetization       5.6416422

 Free energy of the ion-electron system (eV)
  ---------------------------------------------------
  alpha Z        PSCENC =       989.47749747
  Ewald energy   TEWEN  =    -17495.22275337
  -Hartree energ DENC   =     -6308.98954811
  -exchange      EXHF   =         0.00000000
  -V(xc)+E(xc)   XCENC  =       653.75783083
  PAW double counting   =     20093.29468325   -20817.15564120
  entropy T*S    EENTRO =        -0.00501175
  eigenvalues    EBANDS =     -1523.30470248
  atomic energy  EATOM  =     24304.10294433
  ---------------------------------------------------
  free energy    TOTEN  =      -104.04470105 eV

  energy without entropy =     -104.03968929  energy(sigma->0) =     -104.04303046


--------------------------------------------------------------------------------------------------------




--------------------------------------- Iteration      1(   6)  ---------------------------------------


    POTLOK:  cpu time      0.0271: real time      0.0273
    SETDIJ:  cpu time      0.0085: real time      0.0086
    TRIAL :  cpu time      3.3058: real time      3.3373
    CORREC:  cpu time      1.2093: real time      1.2199
    CHARGE:  cpu time      0.2200: real time      0.2212
    --------------------------------------------
      LOOP:  cpu time      4.7901: real time      4.8339

 eigenvalue-minimisations  :     0
 total energy-change (2. order) : 0.6182364E+02  (-0.1400972E+02)
 number of electron     155.9999851 magnetization       8.3257945
 augmentation part       80.0417939 magnetization       5.8358527

 Free energy of the ion-electron system (eV)
  ---------------------------------------------------
  alpha Z        PSCENC =       989.47749747
  Ewald energy   TEWEN  =    -17495.22275337
  -Hartree energ DENC   =     -5134.98746333
  -exchange      EXHF   =         0.00000000
  -V(xc)+E(xc)   XCENC  =       606.08596491
  PAW double counting   =     20262.80427182   -20920.93108033
  entropy T*S    EENTRO =         0.00588105
  eigenvalues    EBANDS =     -2653.54543530
  atomic energy  EATOM  =     24304.10294433
  ---------------------------------------------------
  free energy    TOTEN  =       -42.22106556 eV

  energy without entropy =      -42.22694661  energy(sigma->0) =      -42.22302591


--------------------------------------------------------------------------------------------------------




--------------------------------------- Iteration      1(   7)  ---------------------------------------


    POTLOK:  cpu time      0.0259: real time      0.0262
    SETDIJ:  cpu time      0.0084: real time      0.0084
    TRIAL :  cpu time      3.3875: real time      3.4202
    CORREC:  cpu time      1.2051: real time      1.2171
    CHARGE:  cpu time      0.2128: real time      0.2140
    --------------------------------------------
      LOOP:  cpu time      4.8541: real time      4.9092

 eigenvalue-minimisations  :     0
 total energy-change (2. order) :-0.1830655E+02  (-0.1695250E+02)
 number of electron     155.9999847 magnetization       8.7127325
 augmentation part       82.6231827 magnetization       6.2115262

 Free energy of the ion-electron system (eV)
  ---------------------------------------------------
  alpha Z        PSCENC =       989.47749747
  Ewald energy   TEWEN  =    -17495.22275337
  -Hartree energ DENC   =     -5219.80113846
  -exchange      EXHF   =         0.00000000
  -V(xc)+E(xc)   XCENC  =       610.47281920
  PAW double counting   =     20390.81720269   -21067.86979470
  entropy T*S    EENTRO =         0.00496726
  eigenvalues    EBANDS =     -2572.51027151
  atomic energy  EATOM  =     24304.10294433
  ---------------------------------------------------
  free energy    TOTEN  =       -60.52761331 eV

  energy without entropy =      -60.53258056  energy(sigma->0) =      -60.52926906


--------------------------------------------------------------------------------------------------------




--------------------------------------- Iteration      1(   8)  ---------------------------------------


    POTLOK:  cpu time      0.0262: real time      0.0265
    SETDIJ:  cpu time      0.0081: real time      0.0081
    TRIAL :  cpu time      3.3341: real time      3.3665
    CORREC:  cpu time      1.1944: real time      1.2065
    CHARGE:  cpu time      0.2054: real time      0.2066
    --------------------------------------------
      LOOP:  cpu time      4.7831: real time      4.8374

 eigenvalue-minimisations  :     0
 total energy-change (2. order) :-0.1804546E+02  (-0.7957365E+01)
 number of electron     155.9999844 magnetization       8.2911516
 augmentation part       84.2363933 magnetization       6.1076059

 Free energy of the ion-electron system (eV)
  ---------------------------------------------------
  alpha Z        PSCENC =       989.47749747
  Ewald energy   TEWEN  =    -17495.22275337
  -Hartree energ DENC   =     -5599.00912848
  -exchange      EXHF   =         0.00000000
  -V(xc)+E(xc)   XCENC  =       626.13755302
  PAW double counting   =     21022.58267922   -21767.74082367
  entropy T*S    EENTRO =         0.00952858
  eigenvalues    EBANDS =     -2158.90600560
  atomic energy  EATOM  =     24304.10294433
  ---------------------------------------------------
  free energy    TOTEN  =       -78.57306984 eV

  energy without entropy =      -78.58259842  energy(sigma->0) =      -78.57624603


--------------------------------------------------------------------------------------------------------




--------------------------------------- Iteration      1(   9)  ---------------------------------------


    POTLOK:  cpu time      0.0257: real time      0.0260
    SETDIJ:  cpu time      0.0091: real time      0.0091
    TRIAL :  cpu time      3.3140: real time      3.3451
    CORREC:  cpu time      1.2134: real time      1.2258
    CHARGE:  cpu time      0.2083: real time      0.2095
    --------------------------------------------
      LOOP:  cpu time      4.7865: real time      4.8387

 eigenvalue-minimisations  :     0
 total energy-change (2. order) :-0.7467453E+01  (-0.1247858E+01)
 number of electron     155.9999843 magnetization       8.1367320
 augmentation part       84.5029449 magnetization       6.0501662

 Free energy of the ion-electron system (eV)
  ---------------------------------------------------
  alpha Z        PSCENC =       989.47749747
  Ewald energy   TEWEN  =    -17495.22275337
  -Hartree energ DENC   =     -5852.70269003
  -exchange      EXHF   =         0.00000000
  -V(xc)+E(xc)   XCENC  =       636.18078430
  PAW double counting   =     21534.00984927   -22322.19448533
  entropy T*S    EENTRO =         0.01634264
  eigenvalues    EBANDS =     -1879.70119819
  atomic energy  EATOM  =     24304.10294433
  ---------------------------------------------------
  free energy    TOTEN  =       -86.04052297 eV

  energy without entropy =      -86.05686561  energy(sigma->0) =      -86.04597051


--------------------------------------------------------------------------------------------------------




--------------------------------------- Iteration      1(  10)  ---------------------------------------


    POTLOK:  cpu time      0.0266: real time      0.0268
    SETDIJ:  cpu time      0.0080: real time      0.0080
    TRIAL :  cpu time      3.3411: real time      3.3724
    CORREC:  cpu time      1.2098: real time      1.2222
    CHARGE:  cpu time      0.2018: real time      0.2031
    --------------------------------------------
      LOOP:  cpu time      4.8029: real time      4.8560

 eigenvalue-minimisations  :     0
 total energy-change (2. order) :-0.1036833E+01  (-0.1623586E+01)
 number of electron     155.9999843 magnetization       8.4134305
 augmentation part       84.7993712 magnetization       6.2317894

 Free energy of the ion-electron system (eV)
  ---------------------------------------------------
  alpha Z        PSCENC =       989.47749747
  Ewald energy   TEWEN  =    -17495.22275337
  -Hartree energ DENC   =     -5895.20899928
  -exchange      EXHF   =         0.00000000
  -V(xc)+E(xc)   XCENC  =       637.82167546
  PAW double counting   =     21619.97055922   -22411.30251568
  entropy T*S    EENTRO =         0.02104359
  eigenvalues    EBANDS =     -1836.73210640
  atomic energy  EATOM  =     24304.10294433
  ---------------------------------------------------
  free energy    TOTEN  =       -87.07735561 eV

  energy without entropy =      -87.09839920  energy(sigma->0) =      -87.08437014


--------------------------------------------------------------------------------------------------------




--------------------------------------- Iteration      1(  11)  ---------------------------------------


    POTLOK:  cpu time      0.0252: real time      0.0254
    SETDIJ:  cpu time      0.0090: real time      0.0091
    TRIAL :  cpu time      3.2372: real time      3.2682
    CORREC:  cpu time      1.2099: real time      1.2221
    CHARGE:  cpu time      0.2011: real time      0.2022
    --------------------------------------------
      LOOP:  cpu time      4.6988: real time      4.7499

 eigenvalue-minimisations  :     0
 total energy-change (2. order) :-0.1704962E+01  (-0.6336430E+00)
 number of electron     155.9999843 magnetization       8.6029934
 augmentation part       84.8476503 magnetization       6.3505547

 Free energy of the ion-electron system (eV)
  ---------------------------------------------------
  alpha Z        PSCENC =       989.47749747
  Ewald energy   TEWEN  =    -17495.22275337
  -Hartree energ DENC   =     -5930.34145444
  -exchange      EXHF   =         0.00000000
  -V(xc)+E(xc)   XCENC  =       639.52795754
  PAW double counting   =     21709.29101367   -22497.20818279
  entropy T*S    EENTRO =         0.02304857
  eigenvalues    EBANDS =     -1808.43038405
  atomic energy  EATOM  =     24304.10294433
  ---------------------------------------------------
  free energy    TOTEN  =       -88.78231807 eV

  energy without entropy =      -88.80536664  energy(sigma->0) =      -88.79000092


--------------------------------------------------------------------------------------------------------




--------------------------------------- Iteration      1(  12)  ---------------------------------------


    POTLOK:  cpu time      0.0252: real time      0.0254
    SETDIJ:  cpu time      0.0087: real time      0.0090
    TRIAL :  cpu time      3.3235: real time      3.3542
    CORREC:  cpu time      1.2094: real time      1.2217
    CHARGE:  cpu time      0.1981: real time      0.1993
    --------------------------------------------
      LOOP:  cpu time      4.7795: real time      4.8326

 eigenvalue-minimisations  :     0
 total energy-change (2. order) :-0.8855047E+00  (-0.9690758E+00)
 number of electron     155.9999844 magnetization       8.6794972
 augmentation part       84.8237511 magnetization       6.4168674

 Free energy of the ion-electron system (eV)
  ---------------------------------------------------
  alpha Z        PSCENC =       989.47749747
  Ewald energy   TEWEN  =    -17495.22275337
  -Hartree energ DENC   =     -5930.55276102
  -exchange      EXHF   =         0.00000000
  -V(xc)+E(xc)   XCENC  =       639.76105660
  PAW double counting   =     21718.91870413   -22502.87715079
  entropy T*S    EENTRO =         0.02919790
  eigenvalues    EBANDS =     -1813.29840871
  atomic energy  EATOM  =     24304.10294433
  ---------------------------------------------------
  free energy    TOTEN  =       -89.66782279 eV

  energy without entropy =      -89.69702069  energy(sigma->0) =      -89.67755542


--------------------------------------------------------------------------------------------------------




--------------------------------------- Iteration      1(  13)  ---------------------------------------


    POTLOK:  cpu time      0.0258: real time      0.0260
    SETDIJ:  cpu time      0.0085: real time      0.0085
    TRIAL :  cpu time      3.2031: real time      3.2341
    CORREC:  cpu time      1.2754: real time      1.2884
    CHARGE:  cpu time      0.1982: real time      0.1994
    --------------------------------------------
      LOOP:  cpu time      4.7267: real time      4.7794

 eigenvalue-minimisations  :     0
 total energy-change (2. order) :-0.1127637E+01  (-0.5287364E+00)
 number of electron     155.9999844 magnetization       8.4827291
 augmentation part       84.7861553 magnetization       6.3248963

 Free energy of the ion-electron system (eV)
  ---------------------------------------------------
  alpha Z        PSCENC =       989.47749747
  Ewald energy   TEWEN  =    -17495.22275337
  -Hartree energ DENC   =     -5917.36379481
  -exchange      EXHF   =         0.00000000
  -V(xc)+E(xc)   XCENC  =       639.53742360
  PAW double counting   =     21695.01696496   -22469.96357406
  entropy T*S    EENTRO =         0.03123053
  eigenvalues    EBANDS =     -1836.40936549
  atomic energy  EATOM  =     24304.10294433
  ---------------------------------------------------
  free energy    TOTEN  =       -90.79545948 eV

  energy without entropy =      -90.82669001  energy(sigma->0) =      -90.80586966


--------------------------------------------------------------------------------------------------------




--------------------------------------- Iteration      1(  14)  ---------------------------------------


    POTLOK:  cpu time      0.0253: real time      0.0255
    SETDIJ:  cpu time      0.0088: real time      0.0088
    TRIAL :  cpu time      3.3489: real time      3.3800
    CORREC:  cpu time      1.2070: real time      1.2199
    CHARGE:  cpu time      0.1953: real time      0.1965
    --------------------------------------------
      LOOP:  cpu time      4.8024: real time      4.8534

 eigenvalue-minimisations  :     0
 total energy-change (2. order) :-0.5286765E+00  (-0.1786152E+00)
 number of electron     155.9999844 magnetization       8.3941518
 augmentation part       84.7733131 magnetization       6.2833679

 Free energy of the ion-electron system (eV)
  ---------------------------------------------------
  alpha Z        PSCENC =       989.47749747
  Ewald energy   TEWEN  =    -17495.22275337
  -Hartree energ DENC   =     -5908.87610466
  -exchange      EXHF   =         0.00000000
  -V(xc)+E(xc)   XCENC  =       639.28648700
  PAW double counting   =     21670.73188234   -22438.58635915
  entropy T*S    EENTRO =         0.02587066
  eigenvalues    EBANDS =     -1852.26896048
  atomic energy  EATOM  =     24304.10294433
  ---------------------------------------------------
  free energy    TOTEN  =       -91.32413600 eV

  energy without entropy =      -91.35000666  energy(sigma->0) =      -91.33275955


--------------------------------------------------------------------------------------------------------




--------------------------------------- Iteration      1(  15)  ---------------------------------------


    POTLOK:  cpu time      0.0254: real time      0.0257
    SETDIJ:  cpu time      0.0087: real time      0.0088
    TRIAL :  cpu time      3.2712: real time      3.3027
    CORREC:  cpu time      1.2051: real time      1.2175
    CHARGE:  cpu time      0.1930: real time      0.1942
    --------------------------------------------
      LOOP:  cpu time      4.7198: real time      4.7724

 eigenvalue-minimisations  :     0
 total energy-change (2. order) :-0.1722998E+00  (-0.3725787E+00)
 number of electron     155.9999845 magnetization       8.5407654
 augmentation part       84.7748337 magnetization       6.3785081

 Free energy of the ion-electron system (eV)
  ---------------------------------------------------
  alpha Z        PSCENC =       989.47749747
  Ewald energy   TEWEN  =    -17495.22275337
  -Hartree energ DENC   =     -5909.14824731
  -exchange      EXHF   =         0.00000000
  -V(xc)+E(xc)   XCENC  =       639.25400498
  PAW double counting   =     21655.00372754   -22419.29873495
  entropy T*S    EENTRO =         0.01512027
  eigenvalues    EBANDS =     -1855.69074512
  atomic energy  EATOM  =     24304.10294433
  ---------------------------------------------------
  free energy    TOTEN  =       -91.49643578 eV

  energy without entropy =      -91.51155605  energy(sigma->0) =      -91.50147587


--------------------------------------------------------------------------------------------------------




--------------------------------------- Iteration      1(  16)  ---------------------------------------


    POTLOK:  cpu time      0.0254: real time      0.0256
    SETDIJ:  cpu time      0.0083: real time      0.0084
    TRIAL :  cpu time      3.3626: real time      3.3952
    CORREC:  cpu time      1.2033: real time      1.2161
    CHARGE:  cpu time      0.1969: real time      0.1983
    --------------------------------------------
      LOOP:  cpu time      4.8127: real time      4.8662

 eigenvalue-minimisations  :     0
 total energy-change (2. order) :-0.3688209E+00  (-0.1622034E+00)
 number of electron     155.9999845 magnetization       8.6808626
 augmentation part       84.8053288 magnetization       6.4659637

 Free energy of the ion-electron system (eV)
  ---------------------------------------------------
  alpha Z        PSCENC =       989.47749747
  Ewald energy   TEWEN  =    -17495.22275337
  -Hartree energ DENC   =     -5914.66912613
  -exchange      EXHF   =         0.00000000
  -V(xc)+E(xc)   XCENC  =       639.44451080
  PAW double counting   =     21628.25948810   -22385.11754192
  entropy T*S    EENTRO =         0.01162855
  eigenvalues    EBANDS =     -1858.15539620
  atomic energy  EATOM  =     24304.10294433
  ---------------------------------------------------
  free energy    TOTEN  =       -91.86525666 eV

  energy without entropy =      -91.87688520  energy(sigma->0) =      -91.86913284


--------------------------------------------------------------------------------------------------------




--------------------------------------- Iteration      1(  17)  ---------------------------------------


    POTLOK:  cpu time      0.0250: real time      0.0252
    SETDIJ:  cpu time      0.0089: real time      0.0090
    TRIAL :  cpu time      3.2760: real time      3.3102
    CORREC:  cpu time      1.1955: real time      1.2081
    CHARGE:  cpu time      0.1939: real time      0.1951
    --------------------------------------------
      LOOP:  cpu time      4.7160: real time      4.7709

 eigenvalue-minimisations  :     0
 total energy-change (2. order) :-0.1618625E+00  (-0.1903224E+00)
 number of electron     155.9999845 magnetization       8.6530401
 augmentation part       84.9026655 magnetization       6.4739305

 Free energy of the ion-electron system (eV)
  ---------------------------------------------------
  alpha Z        PSCENC =       989.47749747
[...]
     61       7.2399      1.00000
     62       7.2635      1.00000
     63       7.5607      1.00000
     64       7.6130      1.00000
     65       7.7201      1.00000
     66       7.8212      1.00000
     67       7.8781      1.00001
     68       7.9444      1.00004
     69       7.9971      1.00016
     70       7.9991      1.00017
     71       8.1299      1.00347
     72       8.2125      1.01358
     73       8.2542      1.02248
     74       8.3851      1.02010
     75       8.4250      0.97862
     76       8.5433      0.63585
     77       8.5725      0.51469
     78       8.6196      0.31949
     79       8.8915     -0.02447
     80       8.9118     -0.01963
     81       8.9623     -0.01004
     82       9.0723     -0.00128
     83       9.2356     -0.00000
     84       9.5306     -0.00000
     85       9.5755     -0.00000
     86       9.6141     -0.00000
     87       9.7679     -0.00000
     88       9.9987     -0.00000
     89      10.1210     -0.00000
     90      10.1797     -0.00000
     91      10.2353     -0.00000
     92      10.3201     -0.00000
     93      10.4918     -0.00000
     94      10.5932     -0.00000
     95      10.7579     -0.00000
     96      10.8893     -0.00000
     97      11.0822     -0.00000
     98      11.1896     -0.00000
     99      11.5412     -0.00000
    100      13.0063      0.00000
    101      14.7250      0.00000
    102      14.7516      0.00000
    103      14.8256      0.00000
    104      15.8663      0.00000
    105      15.9775      0.00000
    106      16.4213      0.00000
    107      16.7026      0.00000
    108      17.0193      0.00000
    109      17.1893      0.00000
    110      17.5638      0.00000
    111      17.6290      0.00000
    112      21.6068      0.00000
    113      21.8672      0.00000
    114      22.3153      0.00000
    115      22.3712      0.00000
    116      22.5350      0.00000
    117      22.7113      0.00000
    118      23.3648      0.00000
    119      23.5174      0.00000
    120      25.5601      0.00000
    121      25.5871      0.00000
    122      25.6391      0.00000
    123      25.9962      0.00000
    124      26.2245      0.00000
    125      26.5632      0.00000
    126      26.7651      0.00000
    127      27.0198      0.00000
    128      27.4036      0.00000


--------------------------------------------------------------------------------------------------------


 soft charge-density along one line, spin component           1
         0         1         2         3         4         5         6         7         8         9
 total charge-density along one line
 
 soft charge-density along one line, spin component           2
         0         1         2         3         4         5         6         7         8         9
 total charge-density along one line
 
 pseudopotential strength for first ion, spin component:           1
-43.814  -0.000  -0.000   7.118   0.000   0.000  -0.000   0.005
 -0.000 -43.848  -0.000   0.000   7.131   0.000   0.000  -0.000
 -0.000  -0.000 -43.764   0.000   0.000   7.097  -0.000   0.000
  7.118   0.000   0.000   5.805   0.000   0.000   0.000  -0.002
  0.000   7.131   0.000   0.000   5.801   0.000  -0.000   0.000
  0.000   0.000   7.097   0.000   0.000   5.810   0.000  -0.000
 -0.000   0.000  -0.000   0.000  -0.000   0.000  -1.161  -0.000
  0.005  -0.000   0.000  -0.002   0.000  -0.000  -0.000  -1.181
  0.000   0.008   0.000  -0.000  -0.002  -0.000   0.000  -0.000
  0.000  -0.000  -0.000  -0.000   0.000   0.003  -0.000  -0.000
  0.000  -0.003  -0.000  -0.000   0.003   0.000  -0.000   0.000
 -0.000   0.000  -0.000   0.000  -0.000   0.000  -1.690  -0.000
  0.005  -0.000   0.000  -0.002   0.000  -0.000  -0.000  -1.709
  0.000   0.008   0.000  -0.000  -0.002  -0.000   0.000  -0.000
  0.000  -0.000  -0.000  -0.000   0.000   0.003  -0.000  -0.000
  0.000  -0.003  -0.000  -0.000   0.003   0.000  -0.000   0.000
  0.000   0.000   0.000   0.000   0.002   0.000   0.000   0.000
  0.000   0.002   0.000   0.000   0.005   0.000   0.000   0.000
 pseudopotential strength for first ion, spin component:           2
-46.238  -0.000  -0.000   8.135   0.000   0.000   0.000   0.007
 -0.000 -46.297  -0.000   0.000   8.158   0.000   0.000  -0.000
 -0.000  -0.000 -46.081   0.000   0.000   8.071  -0.000   0.000
  8.135   0.000   0.000   5.512   0.000   0.000  -0.000  -0.004
  0.000   8.158   0.000   0.000   5.507   0.000  -0.000   0.000
  0.000   0.000   8.071   0.000   0.000   5.526   0.000  -0.000
  0.000   0.000  -0.000  -0.000  -0.000   0.000  -3.032  -0.000
  0.007  -0.000   0.000  -0.004   0.000  -0.000  -0.000  -3.209
  0.000   0.017  -0.000  -0.000  -0.007   0.000   0.000  -0.000
  0.000  -0.000   0.030  -0.000  -0.000  -0.013  -0.000  -0.000
  0.000   0.011   0.000  -0.000  -0.005  -0.000  -0.000   0.000
  0.000   0.000  -0.000  -0.000  -0.000   0.000  -3.531  -0.000
  0.007  -0.000   0.000  -0.004   0.000  -0.000  -0.000  -3.705
  0.000   0.016   0.000  -0.000  -0.007   0.000   0.000  -0.000
  0.000  -0.000   0.029  -0.000   0.000  -0.012  -0.000  -0.000
  0.000   0.011   0.000  -0.000  -0.004   0.000  -0.000   0.000
  0.000  -0.006  -0.000   0.000   0.004  -0.000   0.000   0.000
  0.000  -0.015  -0.000   0.000   0.010   0.000   0.000   0.000
 total augmentation occupancy for first ion, spin component:           1
  1.992  -0.000   0.000  -0.029   0.000   0.000   0.000  -0.008  -0.000   0.000   0.000   0.000   0.008   0.000   0.000   0.000
 -0.000   1.992  -0.000   0.000  -0.029   0.000   0.000   0.000  -0.005   0.000   0.003   0.000   0.000   0.005   0.000  -0.003
  0.000  -0.000   1.992   0.000   0.000  -0.028   0.000  -0.000   0.000  -0.001   0.000  -0.000  -0.000   0.000   0.001  -0.000
 -0.029   0.000   0.000   0.157   0.000   0.000   0.000  -0.021   0.000   0.000   0.000   0.000   0.030  -0.000   0.000   0.000
  0.000  -0.029   0.000   0.000   0.156  -0.000   0.000   0.000  -0.013   0.000   0.022   0.000   0.000   0.005   0.000  -0.037
  0.000   0.000  -0.028   0.000  -0.000   0.138  -0.000   0.000  -0.000   0.019  -0.000   0.000   0.000   0.000  -0.050   0.000
  0.000   0.000   0.000   0.000   0.000  -0.000   3.023   0.000   0.000   0.000   0.000  -1.520   0.000   0.000   0.000   0.000
 -0.008   0.000  -0.000  -0.021   0.000   0.000   0.000   2.965   0.000   0.000   0.000   0.000  -1.784   0.000   0.000   0.000
 -0.000  -0.005   0.000   0.000  -0.013  -0.000   0.000   0.000   3.404   0.000   0.219   0.000   0.000  -1.828   0.000  -0.136
  0.000   0.000  -0.001   0.000   0.000   0.019   0.000   0.000   0.000   2.768   0.000   0.000   0.000   0.000  -1.360  -0.000
  0.000   0.003   0.000   0.000   0.022  -0.000   0.000   0.000   0.219   0.000   3.008   0.000   0.000  -0.135   0.000  -1.580
  0.000   0.000  -0.000   0.000   0.000   0.000  -1.520   0.000   0.000   0.000   0.000   1.473   0.000   0.000   0.000   0.000
  0.008   0.000  -0.000   0.030   0.000   0.000   0.000  -1.784   0.000   0.000   0.000   0.000   1.858   0.000   0.000  -0.000
  0.000   0.005   0.000  -0.000   0.005   0.000   0.000   0.000  -1.828   0.000  -0.135   0.000   0.000   1.543   0.000   0.049
  0.000   0.000   0.001   0.000   0.000  -0.050   0.000   0.000   0.000  -1.360   0.000   0.000   0.000   0.000   1.325   0.000
  0.000  -0.003  -0.000   0.000  -0.037   0.000   0.000   0.000  -0.136  -0.000  -1.580   0.000  -0.000   0.049   0.000   1.411
  0.000  -0.000   0.000   0.000  -0.002   0.000   0.000   0.000  -0.119   0.000   0.173   0.000   0.000   0.068   0.000  -0.121
  0.000   0.001   0.000   0.000   0.000   0.000   0.000   0.000   0.011  -0.000  -0.012   0.000   0.000  -0.005   0.000   0.007
 total augmentation occupancy for first ion, spin component:           2
  0.002  -0.000   0.000   0.009   0.000   0.000   0.000   0.001   0.000   0.000   0.000   0.000  -0.001   0.000   0.000   0.000
 -0.000   0.002   0.000   0.000   0.009   0.000   0.000   0.000   0.004   0.000   0.005   0.000   0.000  -0.004   0.000  -0.005
  0.000   0.000   0.002   0.000   0.000   0.010   0.000  -0.000   0.000   0.010  -0.000  -0.000   0.000   0.000  -0.011  -0.000
  0.009   0.000   0.000  -0.007   0.000   0.000   0.000   0.021   0.000  -0.000  -0.000   0.000  -0.016   0.000   0.000  -0.000
  0.000   0.009   0.000   0.000  -0.003  -0.000   0.000   0.000  -0.000   0.000  -0.033   0.000   0.000  -0.010   0.000   0.010
  0.000   0.000   0.010   0.000  -0.000  -0.001   0.000   0.000   0.000  -0.060   0.000  -0.000   0.000   0.000   0.007   0.000
  0.000   0.000   0.000   0.000   0.000   0.000  -2.506   0.000   0.000   0.000  -0.000   1.173   0.000   0.000   0.000  -0.000
  0.001   0.000  -0.000   0.021   0.000   0.000   0.000  -2.352   0.000   0.000   0.000   0.000   0.889  -0.000   0.000   0.000
  0.000   0.004   0.000   0.000  -0.000   0.000   0.000   0.000  -2.915   0.000  -0.118   0.000   0.000   1.317   0.000   0.091
  0.000   0.000   0.010  -0.000   0.000  -0.060   0.000   0.000   0.000  -2.231   0.000   0.000   0.000   0.000   0.890   0.000
  0.000   0.005  -0.000  -0.000  -0.033   0.000  -0.000   0.000  -0.118   0.000  -2.569  -0.000   0.000   0.093   0.000   1.014
  0.000   0.000  -0.000   0.000   0.000  -0.000   1.173   0.000   0.000   0.000  -0.000  -0.379  -0.000   0.000   0.000  -0.000
 -0.001   0.000   0.000  -0.016   0.000   0.000   0.000   0.889   0.000   0.000   0.000  -0.000  -0.101  -0.000   0.000  -0.000
  0.000  -0.004   0.000   0.000  -0.010   0.000   0.000  -0.000   1.317   0.000   0.093   0.000  -0.000  -0.493   0.000  -0.096
  0.000   0.000  -0.011   0.000   0.000   0.007   0.000   0.000   0.000   0.890   0.000   0.000   0.000   0.000  -0.153   0.000
  0.000  -0.005  -0.000  -0.000   0.010   0.000  -0.000   0.000   0.091   0.000   1.014  -0.000  -0.000  -0.096   0.000  -0.223
  0.000  -0.001   0.000   0.000  -0.019   0.000   0.000   0.000   0.039   0.000  -0.059   0.000   0.000  -0.044  -0.000   0.049
  0.000  -0.000   0.000   0.000  -0.000  -0.000   0.000   0.000  -0.008   0.000   0.007   0.000   0.000   0.003   0.000  -0.002


------------------------ aborting loop because EDIFF is reached ----------------------------------------





 total charge

# of ion       s       p       d       tot
------------------------------------------
    1        0.329   6.277   5.961  12.566
    2        0.327   6.278   5.986  12.591
    3        0.322   6.270   5.957  12.550
    4        0.329   6.280   5.950  12.560
    5        0.329   6.279   5.966  12.574
    6        0.325   6.279   5.962  12.566
    7        0.329   6.277   5.961  12.566
    8        0.327   6.278   5.986  12.591
    9        0.322   6.270   5.957  12.550
   10        0.719   0.576   7.996   9.291
   11        0.726   0.580   7.999   9.305
   12        0.714   0.606   7.993   9.312
--------------------------------------------------
tot          5.097  58.250  77.677 141.023



 magnetization (x)

# of ion       s       p       d       tot
------------------------------------------
    1       -0.017  -0.005  -2.826  -2.848
    2        0.004  -0.012   2.821   2.812
    3        0.013   0.001   2.829   2.842
    4       -0.018  -0.019  -2.816  -2.853
    5        0.015   0.018   2.774   2.807
    6        0.004  -0.015   2.930   2.919
    7       -0.017  -0.005  -2.826  -2.848
    8        0.004  -0.012   2.821   2.812
    9        0.013   0.001   2.829   2.842
   10        0.007   0.016  -0.067  -0.045
   11       -0.007  -0.017   0.052   0.028
   12       -0.041  -0.097   0.413   0.275
--------------------------------------------------
tot         -0.041  -0.147   8.933   8.745
 
    FORLOC:  cpu time      0.0011: real time      0.0011
    FORNL :  cpu time      0.8007: real time      0.8051
    STRESS:  cpu time      4.8932: real time      4.9325
    FORCOR:  cpu time      0.0241: real time      0.0243
    OFIELD:  cpu time      0.0001: real time      0.0001

  FORCE on cell =-STRESS in cart. coord.  units (eV):
  Direction    XX          YY          ZZ          XY          YZ          ZX
  --------------------------------------------------------------------------------------
  Alpha Z   989.47750   989.47750   989.47750
  Ewald   -5813.21099 -5813.21099 -5868.82388     0.00000     0.00000     0.00000
  Hartree  2002.52297  2002.52297  1950.83160    -0.00000    -0.00000    -0.00000
  E(xc)    -941.20897  -941.20897  -941.16245     0.00000     0.00000    -0.00000
  Local     854.14245   854.14245   969.87684     0.00000     0.00000     0.00000
  n-local  -229.28350  -244.55394  -238.26203    12.39642     0.05431     0.09236
  augment  1443.09341  1443.09341  1438.59490     0.00000     0.00000     0.00000
  Kinetic  1693.61356  1679.71723  1684.06719     1.63008     0.09275    -0.16482
  Fock        0.00000     0.00000     0.00000     0.00000     0.00000     0.00000
  -------------------------------------------------------------------------------------
  Total     -15.43696   -15.43696   -15.40033     0.00000     0.00000     0.00000
  in kB    -143.79505  -143.79505  -143.45385     0.00000     0.00000     0.00000
  external pressure =     -143.68 kB  Pullay stress =        0.00 kB


 VOLUME and BASIS-vectors are now :
 -----------------------------------------------------------------------------
  energy-cutoff  :      520.00
  volume of cell :      172.00
      direct lattice vectors                 reciprocal lattice vectors
     3.838083469  0.000000000  0.000000000     0.260546705  0.000000000  0.000000000
     0.000000000  3.838083469  0.000000000     0.000000000  0.260546705  0.000000000
     0.000000000  0.000000000 11.676148669     0.000000000  0.000000000  0.085644679

  length of vectors
     3.838083469  3.838083469 11.676148669     0.260546705  0.260546705  0.085644679


 FORCES acting on ions:
    Electron-Ion                     Ewald-Force                    Non-Local-Force
 -----------------------------------------------------------------------------------------------
   -.221E-13 0.544E-12 0.636E+01   -.427E-13 -.442E-14 -.733E+01   0.250E-19 0.876E-19 0.967E+00
   -.357E-13 -.255E-12 -.160E+02   -.456E-13 0.138E-13 0.162E+02   -.782E-20 -.105E-17 -.197E+00
   -.438E-13 -.936E-12 -.591E+02   -.271E-13 -.235E-14 0.579E+02   0.274E-18 -.175E-17 0.125E+01
   0.593E-12 -.372E-11 0.101E+03   0.997E-14 -.102E-13 -.980E+02   -.172E-17 -.852E-18 -.312E+01
   0.610E-12 -.344E-11 0.140E+03   0.649E-13 -.497E-13 -.137E+03   0.474E-18 0.793E-18 -.311E+01
   0.656E-12 -.327E-11 -.958E+02   -.249E-13 0.218E-14 0.961E+02   -.106E-18 0.186E-19 -.305E+00
   0.629E-12 -.681E-12 0.636E+01   0.496E-13 0.115E-13 -.733E+01   -.120E-17 -.497E-19 0.967E+00
   0.631E-12 -.678E-12 -.160E+02   0.710E-13 -.659E-14 0.162E+02   0.481E-19 -.685E-20 -.197E+00
   0.626E-12 0.104E-12 -.591E+02   0.511E-13 -.148E-13 0.579E+02   0.337E-18 0.421E-18 0.125E+01
   -.985E-14 0.926E-15 0.182E+02   -.130E-13 0.223E-13 -.188E+02   -.182E-18 0.535E-19 0.556E+00
   -.467E-14 0.346E-12 0.259E+02   -.715E-13 0.456E-13 -.263E+02   0.452E-18 0.150E-17 0.495E+00
   -.798E-14 0.417E-13 -.512E+02   -.413E-13 -.222E-13 0.509E+02   0.281E-18 0.199E-18 0.274E+00
 -----------------------------------------------------------------------------------------------
   0.364E-11 -.120E-10 0.117E+01   -.194E-13 -.147E-13 -.639E-13   -.133E-17 -.638E-18 -.117E+01
 
 
 POSITION                                       TOTAL-FORCE (eV/Angst)
 -----------------------------------------------------------------------------------
      0.00000      1.91904      1.94588        -0.000000     -0.000000     -0.001511
      0.00000      1.91904      5.83103         0.000000      0.000000      0.002204
      0.00000      1.91904      9.70490         0.000000      0.000000      0.004036
      1.91904      1.91904      0.10223        -0.000000     -0.000000      0.005928
      1.91904      1.91904      4.02987         0.000000      0.000000      0.004294
      1.91904      1.91904      7.73416         0.000000     -0.000000     -0.002333
      1.91904      0.00000      1.94588         0.000000      0.000000     -0.001511
      1.91904      0.00000      5.83103         0.000000      0.000000      0.002204
      1.91904      0.00000      9.70490        -0.000000      0.000000      0.004036
      0.00000      0.00000     11.63315         0.000000      0.000000     -0.008960
      0.00000      0.00000      3.82879         0.000000      0.000000     -0.007631
      0.00000      0.00000      7.76508         0.000000      0.000000     -0.000756
 -----------------------------------------------------------------------------------
    total drift:                                0.000000     -0.000000     -0.001104


--------------------------------------------------------------------------------------------------------



  FREE ENERGIE OF THE ION-ELECTRON SYSTEM (eV)
  ---------------------------------------------------
  free  energy   TOTEN  =       -92.46421205 eV

  energy  without entropy=      -92.46818470  energy(sigma->0) =      -92.46553627
 


--------------------------------------------------------------------------------------------------------


    POTLOK:  cpu time      0.0547: real time      0.0550


--------------------------------------------------------------------------------------------------------




--------------------------------------------------------------------------------------------------------


  
 reached required accuracy - stopping structural energy minimisation
     LOOP+:  cpu time    279.5213: real time    282.7195
    4ORBIT:  cpu time      0.0000: real time      0.0000



 total charge

# of ion       s       p       d       tot
------------------------------------------
    1        0.329   6.277   5.961  12.566
    2        0.327   6.278   5.986  12.591
    3        0.322   6.270   5.957  12.550
    4        0.329   6.280   5.950  12.560
    5        0.329   6.279   5.966  12.574
    6        0.325   6.279   5.962  12.566
    7        0.329   6.277   5.961  12.566
    8        0.327   6.278   5.986  12.591
    9        0.322   6.270   5.957  12.550
   10        0.719   0.576   7.996   9.291
   11        0.726   0.580   7.999   9.305
   12        0.714   0.606   7.993   9.312
--------------------------------------------------
tot          5.097  58.250  77.677 141.023



 magnetization (x)

# of ion       s       p       d       tot
------------------------------------------
    1       -0.017  -0.005  -2.826  -2.848
    2        0.004  -0.012   2.821   2.812
    3        0.013   0.001   2.829   2.842
    4       -0.018  -0.019  -2.816  -2.853
    5        0.015   0.018   2.774   2.807
    6        0.004  -0.015   2.930   2.919
    7       -0.017  -0.005  -2.826  -2.848
    8        0.004  -0.012   2.821   2.812
    9        0.013   0.001   2.829   2.842
   10        0.007   0.016  -0.067  -0.045
   11       -0.007  -0.017   0.052   0.028
   12       -0.041  -0.097   0.413   0.275
--------------------------------------------------
tot         -0.041  -0.147   8.933   8.745
 

 total amount of memory used by VASP MPI-rank0   311525. kBytes
=======================================================================

   base      :      30000. kBytes
   nonl-proj :     113922. kBytes
   fftplans  :       1055. kBytes
   grid      :       8252. kBytes
   one-center:        373. kBytes
   wavefun   :     157923. kBytes
 
  
  
 General timing and accounting informations for this job:
 ========================================================
  
                  Total CPU time used (sec):      299.586
                            User time (sec):      292.582
                          System time (sec):        7.004
                         Elapsed time (sec):      311.432
  
                   Maximum memory used (kb):     1209288.
                   Average memory used (kb):          N/A
  
                          Minor page faults:       211794
                          Major page faults:          127
                 Voluntary context switches:         9827
