 vasp.6.4.3 19Mar24 (build Mar 26 2024 14:05:37) complex                        
  
 executed on             LinuxIFC date 2024.12.16  20:14:26
 running  128 mpi-ranks, on    1 nodes
 distrk:  each k-point on   32 cores,    4 groups
 distr:  one band on NCORE=   1 cores,   32 groups


--------------------------------------------------------------------------------------------------------


 INCAR:
   ALGO = Normal
   EDIFF = 1e-06
   EDIFFG = -0.01
   ENCUT = 520
   GGA = Pe
   IBRION = -1
   ISIF = 4
   ISMEAR = -5
   ISPIN = 2
   KPAR = 4
   LCHARG = True
   LORBIT = 11
   LREAL = False
   LWAVE = False
   MAGMOM = 1*-2.848 1*2.812 1*2.842 1*-2.853 1*2.807 1*2.919 1*-2.848 1*2.812 1*2.842 1*-0.045 1*0.028 1*0.275
   NELM = 200
   NSW = 0
   PREC = Accurate
   SIGMA = 0.2

 POTCAR:    PAW_PBE Fe_pv 02Aug2007               
 POTCAR:    PAW_PBE Pt 04Feb2005                  
 -----------------------------------------------------------------------------
|                                                                             |
|           W    W    AA    RRRRR   N    N  II  N    N   GGGG   !!!           |
|           W    W   A  A   R    R  NN   N  II  NN   N  G    G  !!!           |
|           W    W  A    A  R    R  N N  N  II  N N  N  G       !!!           |
|           W WW W  AAAAAA  RRRRR   N  N N  II  N  N N  G  GGG   !            |
|           WW  WW  A    A  R   R   N   NN  II  N   NN  G    G                |
|           W    W  A    A  R    R  N    N  II  N    N   GGGG   !!!           |
|                                                                             |
|     For optimal performance we recommend to set                             |
|       NCORE = 2 up to number-of-cores-per-socket                            |
|     NCORE specifies how many cores store one orbital (NPAR=cpu/NCORE).      |
|     This setting can greatly improve the performance of VASP for DFT.       |
|     The default, NCORE=1 might be grossly inefficient on modern             |
|     multi-core architectures or massively parallel machines. Do your        |
|     own testing! More info at https://www.vasp.at/wiki/index.php/NCORE      |
|     Unfortunately you need to use the default for GW and RPA                |
|     calculations (for HF NCORE is supported but not extensively tested      |
|     yet).                                                                   |
|                                                                             |
 -----------------------------------------------------------------------------

 POTCAR:    PAW_PBE Fe_pv 02Aug2007               
   SHA256 =  5d22e414b1f82158bf2c7ecb8b97b28fd0923e48cadc1c3bf74d524558f5dd32 Fe_pv/POTCAR          
   COPYR  = (c) Copyright 02Aug2007 Georg Kresse                                                    
   COPYR  = This file is part of the software VASP. Any use, copying, and all other rights are regul
   COPYR  = If you do not have a valid VASP license, you may not use, copy or distribute this file. 
   VRHFIN =Fe:  3pd7s1                                                                              
   LEXCH  = PE                                                                                      
   EATOM  =  2457.4239 eV,  180.6156 Ry                                                             
                                                                                                    
   TITEL  = PAW_PBE Fe_pv 02Aug2007                                                                 
   LULTRA =        F    use ultrasoft PP ?                                                          
   IUNSCR =        1    unscreen: 0-lin 1-nonlin 2-no                                               
   RPACOR =    1.750    partial core radius                                                         
   POMASS =   55.847; ZVAL   =   14.000    mass and valenz                                          
   RCORE  =    2.200    outmost cutoff radius                                                       
   RWIGS  =    2.200; RWIGS  =    1.164    wigner-seitz radius (au A)                               
   ENMAX  =  293.238; ENMIN  =  219.928 eV                                                          
   ICORE  =        3    local potential                                                             
   LCOR   =        T    correct aug charges                                                         
   LPAW   =        T    paw PP                                                                      
   EAUG   =  578.342                                                                                
   DEXC   =    0.000                                                                                
   RMAX   =    2.249    core radius for proj-oper                                                   
   RAUG   =    1.300    factor for augmentation sphere                                              
   RDEP   =    2.296    radius for radial grids                                                     
   RDEPT  =    1.766    core radius for aug-charge                                                  
                                                                                                    
   Atomic configuration                                                                             
    8 entries                                                                                       
     n  l   j            E        occ.                                                              
     1  0  0.50     -6993.8440   2.0000                                                             
     2  0  0.50      -814.6047   2.0000                                                             
     2  1  1.50      -693.3689   6.0000                                                             
     3  0  0.50       -89.4732   2.0000                                                             
     3  1  1.50       -55.6373   6.0000                                                             
     3  2  2.50        -3.8151   7.0000                                                             
     4  0  0.50        -4.2551   1.0000                                                             
     4  3  2.50        -1.3606   0.0000                                                             
   Description                                                                                      
     l       E           TYP  RCUT    TYP  RCUT                                                     
     1    -55.6372668     23  2.000                                                                 
     1     -5.4423304     23  2.000                                                                 
     2     -3.8151096     23  2.200                                                                 
     2     -5.1756922     23  2.200                                                                 
     0     -4.2550951     23  2.200                                                                 
     0     27.2116520     23  2.200                                                                 
     3     -1.3605826     23  2.200                                                                 
  local pseudopotential read in
  partial core-charges read in
  partial kinetic energy density read in
  atomic valenz-charges read in
  non local Contribution for L=           1  read in
    real space projection operators read in
  non local Contribution for L=           1  read in
    real space projection operators read in
  non local Contribution for L=           2  read in
    real space projection operators read in
  non local Contribution for L=           2  read in
    real space projection operators read in
  non local Contribution for L=           0  read in
    real space projection operators read in
  non local Contribution for L=           0  read in
    real space projection operators read in
    PAW grid and wavefunctions read in
 
   number of l-projection  operators is LMAX  =           6
   number of lm-projection operators is LMMAX =          18
 
 POTCAR:    PAW_PBE Pt 04Feb2005                  
   SHA256 =  3ed90460adef76debcff1cfb73ee1349b515b1a3db03439735b44de3a8db7dc8 Pt/POTCAR             
   COPYR  = (c) Copyright 04Feb2005 Georg Kresse                                                    
   COPYR  = This file is part of the software VASP. Any use, copying, and all other rights are regul
   COPYR  = If you do not have a valid VASP license, you may not use, copy or distribute this file. 
   VRHFIN =Pt: s1d9                                                                                 
   LEXCH  = PE                                                                                      
   EATOM  =   729.1176 eV,   53.5886 Ry                                                             
                                                                                                    
   TITEL  = PAW_PBE Pt 04Feb2005                                                                    
   LULTRA =        F    use ultrasoft PP ?                                                          
   IUNSCR =        1    unscreen: 0-lin 1-nonlin 2-no                                               
   RPACOR =    2.330    partial core radius                                                         
   POMASS =  195.080; ZVAL   =   10.000    mass and valenz                                          
   RCORE  =    2.600    outmost cutoff radius                                                       
   RWIGS  =    2.750; RWIGS  =    1.455    wigner-seitz radius (au A)                               
   ENMAX  =  230.283; ENMIN  =  172.712 eV                                                          
   ICORE  =        3    local potential                                                             
   LCOR   =        T    correct aug charges                                                         
   LPAW   =        T    paw PP                                                                      
   EAUG   =  358.966                                                                                
   DEXC   =    0.000                                                                                
   RMAX   =    2.658    core radius for proj-oper                                                   
   RAUG   =    1.300    factor for augmentation sphere                                              
   RDEP   =    2.761    radius for radial grids                                                     
   RDEPT  =    2.203    core radius for aug-charge                                                  
                                                                                                    
   Atomic configuration                                                                             
   16 entries                                                                                       
     n  l   j            E        occ.                                                              
     1  0  0.50    -78401.1885   2.0000                                                             
     2  0  0.50    -13770.7750   2.0000                                                             
     2  1  1.50    -11931.0468   6.0000                                                             
     3  0  0.50     -3234.7234   2.0000                                                             
     3  1  1.50     -2699.2216   6.0000                                                             
     3  2  2.50     -2119.5714  10.0000                                                             
     4  0  0.50      -695.1528   2.0000                                                             
     4  1  1.50      -519.6034   6.0000                                                             
     4  2  2.50      -306.6786  10.0000                                                             
     4  3  3.50       -70.1041  14.0000                                                             
     5  0  0.50      -101.7747   2.0000                                                             
     5  1  1.50       -55.9873   6.0000                                                             
     5  2  2.50        -6.1423   9.0000                                                             
     6  0  0.50        -5.6573   1.0000                                                             
     6  1  1.50        -6.8029   0.0000                                                             
     5  3  2.50        -1.3606   0.0000                                                             
   Description                                                                                      
     l       E           TYP  RCUT    TYP  RCUT                                                     
     2     -6.1423404     23  2.500                                                                 
     2     -7.5029230     23  2.500                                                                 
     0     -5.6573207     23  2.500                                                                 
     0      0.7416693     23  2.500                                                                 
     1     -2.7211652     23  2.600                                                                 
     1     20.4087390     23  2.600                                                                 
     3     -1.3605826     23  2.500                                                                 
  local pseudopotential read in
  partial core-charges read in
  partial kinetic energy density read in
  atomic valenz-charges read in
  non local Contribution for L=           2  read in
    real space projection operators read in
  non local Contribution for L=           2  read in
    real space projection operators read in
  non local Contribution for L=           0  read in
    real space projection operators read in
  non local Contribution for L=           0  read in
    real space projection operators read in
  non local Contribution for L=           1  read in
    real space projection operators read in
  non local Contribution for L=           1  read in
    real space projection operators read in
    PAW grid and wavefunctions read in
 
   number of l-projection  operators is LMAX  =           6
   number of lm-projection operators is LMMAX =          18
 
  PAW_PBE Fe_pv 02Aug2007               :
 energy of atom  1       EATOM=-2457.4239
 kinetic energy error for atom=    0.0062 (will be added to EATOM!!)
  PAW_PBE Pt 04Feb2005                  :
 energy of atom  2       EATOM= -729.1176
 kinetic energy error for atom=    0.0032 (will be added to EATOM!!)
 
 
 POSCAR: Fe9 Pt3
  positions in direct lattice
  velocities in cartesian coordinates


 exchange-correlation table for PE
   RHO(1)=    0.500       N(1)  =     2000
   RHO(2)=  100.500       N(2)  =     4000
 


--------------------------------------------------------------------------------------------------------


 ion  position               nearest neighbor table
   1  0.000  0.500  0.167-   4 2.66   4 2.66  11 2.69  11 2.69   7 2.71   7 2.71   7 2.71   7 2.71
                            10 2.76  10 2.76
   2  0.000  0.500  0.499-   5 2.63   5 2.63   6 2.70   6 2.70   8 2.71   8 2.71   8 2.71   8 2.71
                            12 2.72  12 2.72  11 2.77  11 2.77
   3  0.000  0.500  0.831-   9 2.71   9 2.71   9 2.71   9 2.71  10 2.72  10 2.72  12 2.73  12 2.73
                             6 2.75   6 2.75
   4  0.500  0.500  0.009-   1 2.66   7 2.66   7 2.66   1 2.66  10 2.72  10 2.72  10 2.72  10 2.72

   5  0.500  0.500  0.345-   2 2.63   8 2.63   8 2.63   2 2.63  11 2.72  11 2.72  11 2.72  11 2.72

   6  0.500  0.500  0.662-   2 2.70   8 2.70   8 2.70   2 2.70  12 2.71  12 2.71  12 2.71  12 2.71
                             9 2.75   3 2.75   9 2.75   3 2.75
   7  0.500  0.000  0.167-   4 2.66   4 2.66  11 2.69  11 2.69   1 2.71   1 2.71   1 2.71   1 2.71
                            10 2.76  10 2.76
   8  0.500  0.000  0.499-   5 2.63   5 2.63   6 2.70   6 2.70   2 2.71   2 2.71   2 2.71   2 2.71
                            12 2.72  12 2.72  11 2.77  11 2.77
   9  0.500  0.000  0.831-   3 2.71   3 2.71   3 2.71   3 2.71  10 2.72  10 2.72  12 2.73  12 2.73
                             6 2.75   6 2.75
  10  0.000  0.000  0.996-   4 2.72   4 2.72   4 2.72   4 2.72   3 2.72   9 2.72   9 2.72   3 2.72
                             1 2.76   7 2.76   7 2.76   1 2.76
  11  0.000  0.000  0.328-   1 2.69   7 2.69   1 2.69   7 2.69   5 2.72   5 2.72   5 2.72   5 2.72
                             2 2.77   2 2.77   8 2.77   8 2.77
  12  0.000  0.000  0.665-   6 2.71   6 2.71   6 2.71   6 2.71   2 2.72   8 2.72   8 2.72   2 2.72
                             3 2.73   3 2.73   9 2.73   9 2.73
 
  LATTYP: Found a simple tetragonal cell.
 ALAT       =     3.8380834694
 C/A-ratio  =     3.0421820584
  
  Lattice vectors:
  
 A1 = (   3.8380834694,   0.0000000000,   0.0000000000)
 A2 = (   0.0000000000,   3.8380834694,   0.0000000000)
 A3 = (   0.0000000000,   0.0000000000,  11.6761486693)


Analysis of symmetry for initial positions (statically):
=====================================================================
 Subroutine PRICEL returns:
 Original cell was already a primitive cell.
 

 Routine SETGRP: Setting up the symmetry group for a 
 simple tetragonal supercell.


 Subroutine GETGRP returns: Found  8 space group operations
 (whereof  8 operations were pure point group operations)
 out of a pool of 16 trial point group operations.


The static configuration has the point symmetry C_4v.


Analysis of symmetry for dynamics (positions and initial velocities):
=====================================================================
 Subroutine PRICEL returns:
 Original cell was already a primitive cell.
 

 Routine SETGRP: Setting up the symmetry group for a 
 simple tetragonal supercell.


 Subroutine GETGRP returns: Found  8 space group operations
 (whereof  8 operations were pure point group operations)
 out of a pool of 16 trial point group operations.


The dynamic configuration has the point symmetry C_4v.


Analysis of structural, dynamic, and magnetic symmetry:
=====================================================================
 Subroutine PRICEL returns:
 Original cell was already a primitive cell.
 

 Routine SETGRP: Setting up the symmetry group for a 
 simple tetragonal supercell.


 Subroutine GETGRP returns: Found  8 space group operations
 (whereof  8 operations were pure point group operations)
 out of a pool of 16 trial point group operations.


The overall configuration has the point symmetry C_4v.


 Subroutine INISYM returns: Found  8 space group operations
 (whereof  8 operations are pure point group operations),
 and found     1 'primitive' translations


----------------------------------------------------------------------------------------

                                     Primitive cell                                     

  volume of cell :     172.0000

  direct lattice vectors                    reciprocal lattice vectors
     3.838083469  0.000000000  0.000000000     0.260546705  0.000000000  0.000000000
     0.000000000  3.838083469  0.000000000     0.000000000  0.260546705  0.000000000
     0.000000000  0.000000000 11.676148669     0.000000000  0.000000000  0.085644679

  length of vectors
     3.838083469  3.838083469 11.676148669     0.260546705  0.260546705  0.085644679

  position of ions in fractional coordinates (direct lattice)
     0.000000000  0.500000000  0.166654539
     0.000000000  0.500000000  0.499396388
     0.000000000  0.500000000  0.831172668
     0.500000000  0.500000000  0.008755399
     0.500000000  0.500000000  0.345137325
     0.500000000  0.500000000  0.662389570
     0.500000000  0.000000000  0.166654539
     0.500000000  0.000000000  0.499396388
     0.500000000  0.000000000  0.831172668
     0.000000000  0.000000000  0.996317369
     0.000000000  0.000000000  0.327915765
     0.000000000  0.000000000  0.665037383

  ion indices of the primitive-cell ions
   primitive index   ion index
                 1           1
                 2           2
                 3           3
                 4           4
                 5           5
                 6           6
                 7           7
                 8           8
                 9           9
                10          10
                11          11
                12          12

----------------------------------------------------------------------------------------

 
 
 KPOINTS: pymatgen with grid density = 8800 / numb

Automatic generation of k-mesh.
 Grid dimensions read from file:
 generate k-points for:   13   13    4

 Generating k-lattice:

  Cartesian coordinates                     Fractional coordinates (reciprocal lattice)
     0.020042054  0.000000000  0.000000000     0.076923077  0.000000000  0.000000000
     0.000000000  0.020042054  0.000000000     0.000000000  0.076923077  0.000000000
     0.000000000  0.000000000  0.021411170     0.000000000  0.000000000  0.250000000

  Length of vectors
     0.020042054  0.020042054  0.021411170

  Shift w.r.t. Gamma in fractional coordinates (k-lattice)
     0.000000000  0.000000000  0.000000000

 TETIRR: Found   1010 inequivalent tetrahedra from     4056
 
 Subroutine IBZKPT returns following result:
 ===========================================
 
 Found     84 irreducible k-points:
 
 Following reciprocal coordinates:
            Coordinates               Weight
  0.000000  0.000000  0.000000      1.000000
  0.076923  0.000000  0.000000      4.000000
  0.153846  0.000000  0.000000      4.000000
  0.230769  0.000000  0.000000      4.000000
  0.307692  0.000000  0.000000      4.000000
  0.384615  0.000000  0.000000      4.000000
  0.461538  0.000000  0.000000      4.000000
  0.076923  0.076923  0.000000      4.000000
  0.153846  0.076923  0.000000      8.000000
  0.230769  0.076923  0.000000      8.000000
  0.307692  0.076923  0.000000      8.000000
  0.384615  0.076923  0.000000      8.000000
  0.461538  0.076923  0.000000      8.000000
  0.153846  0.153846  0.000000      4.000000
  0.230769  0.153846  0.000000      8.000000
  0.307692  0.153846  0.000000      8.000000
  0.384615  0.153846  0.000000      8.000000
  0.461538  0.153846  0.000000      8.000000
  0.230769  0.230769  0.000000      4.000000
  0.307692  0.230769  0.000000      8.000000
  0.384615  0.230769  0.000000      8.000000
  0.461538  0.230769  0.000000      8.000000
  0.307692  0.307692  0.000000      4.000000
  0.384615  0.307692  0.000000      8.000000
  0.461538  0.307692  0.000000      8.000000
  0.384615  0.384615  0.000000      4.000000
  0.461538  0.384615  0.000000      8.000000
  0.461538  0.461538  0.000000      4.000000
  0.000000  0.000000  0.250000      2.000000
  0.076923  0.000000  0.250000      8.000000
  0.153846  0.000000  0.250000      8.000000
  0.230769  0.000000  0.250000      8.000000
  0.307692  0.000000  0.250000      8.000000
  0.384615  0.000000  0.250000      8.000000
  0.461538  0.000000  0.250000      8.000000
  0.076923  0.076923  0.250000      8.000000
  0.153846  0.076923  0.250000     16.000000
  0.230769  0.076923  0.250000     16.000000
  0.307692  0.076923  0.250000     16.000000
  0.384615  0.076923  0.250000     16.000000
  0.461538  0.076923  0.250000     16.000000
  0.153846  0.153846  0.250000      8.000000
  0.230769  0.153846  0.250000     16.000000
  0.307692  0.153846  0.250000     16.000000
  0.384615  0.153846  0.250000     16.000000
  0.461538  0.153846  0.250000     16.000000
  0.230769  0.230769  0.250000      8.000000
  0.307692  0.230769  0.250000     16.000000
  0.384615  0.230769  0.250000     16.000000
  0.461538  0.230769  0.250000     16.000000
  0.307692  0.307692  0.250000      8.000000
  0.384615  0.307692  0.250000     16.000000
  0.461538  0.307692  0.250000     16.000000
  0.384615  0.384615  0.250000      8.000000
  0.461538  0.384615  0.250000     16.000000
  0.461538  0.461538  0.250000      8.000000
  0.000000  0.000000  0.500000      1.000000
  0.076923  0.000000  0.500000      4.000000
  0.153846  0.000000  0.500000      4.000000
  0.230769  0.000000  0.500000      4.000000
  0.307692  0.000000  0.500000      4.000000
  0.384615  0.000000  0.500000      4.000000
  0.461538  0.000000  0.500000      4.000000
  0.076923  0.076923  0.500000      4.000000
  0.153846  0.076923  0.500000      8.000000
  0.230769  0.076923  0.500000      8.000000
  0.307692  0.076923  0.500000      8.000000
  0.384615  0.076923  0.500000      8.000000
  0.461538  0.076923  0.500000      8.000000
  0.153846  0.153846  0.500000      4.000000
  0.230769  0.153846  0.500000      8.000000
  0.307692  0.153846  0.500000      8.000000
  0.384615  0.153846  0.500000      8.000000
  0.461538  0.153846  0.500000      8.000000
  0.230769  0.230769  0.500000      4.000000
  0.307692  0.230769  0.500000      8.000000
  0.384615  0.230769  0.500000      8.000000
  0.461538  0.230769  0.500000      8.000000
  0.307692  0.307692  0.500000      4.000000
  0.384615  0.307692  0.500000      8.000000
  0.461538  0.307692  0.500000      8.000000
  0.384615  0.384615  0.500000      4.000000
  0.461538  0.384615  0.500000      8.000000
  0.461538  0.461538  0.500000      4.000000
 
 Following cartesian coordinates:
            Coordinates               Weight
  0.000000  0.000000  0.000000      1.000000
  0.020042  0.000000  0.000000      4.000000
  0.040084  0.000000  0.000000      4.000000
  0.060126  0.000000  0.000000      4.000000
  0.080168  0.000000  0.000000      4.000000
  0.100210  0.000000  0.000000      4.000000
  0.120252  0.000000  0.000000      4.000000
  0.020042  0.020042  0.000000      4.000000
  0.040084  0.020042  0.000000      8.000000
  0.060126  0.020042  0.000000      8.000000
  0.080168  0.020042  0.000000      8.000000
  0.100210  0.020042  0.000000      8.000000
  0.120252  0.020042  0.000000      8.000000
  0.040084  0.040084  0.000000      4.000000
  0.060126  0.040084  0.000000      8.000000
  0.080168  0.040084  0.000000      8.000000
  0.100210  0.040084  0.000000      8.000000
  0.120252  0.040084  0.000000      8.000000
  0.060126  0.060126  0.000000      4.000000
  0.080168  0.060126  0.000000      8.000000
  0.100210  0.060126  0.000000      8.000000
  0.120252  0.060126  0.000000      8.000000
  0.080168  0.080168  0.000000      4.000000
  0.100210  0.080168  0.000000      8.000000
  0.120252  0.080168  0.000000      8.000000
  0.100210  0.100210  0.000000      4.000000
  0.120252  0.100210  0.000000      8.000000
  0.120252  0.120252  0.000000      4.000000
  0.000000  0.000000  0.021411      2.000000
  0.020042  0.000000  0.021411      8.000000
  0.040084  0.000000  0.021411      8.000000
  0.060126  0.000000  0.021411      8.000000
  0.080168  0.000000  0.021411      8.000000
  0.100210  0.000000  0.021411      8.000000
  0.120252  0.000000  0.021411      8.000000
  0.020042  0.020042  0.021411      8.000000
  0.040084  0.020042  0.021411     16.000000
  0.060126  0.020042  0.021411     16.000000
  0.080168  0.020042  0.021411     16.000000
  0.100210  0.020042  0.021411     16.000000
  0.120252  0.020042  0.021411     16.000000
  0.040084  0.040084  0.021411      8.000000
  0.060126  0.040084  0.021411     16.000000
  0.080168  0.040084  0.021411     16.000000
  0.100210  0.040084  0.021411     16.000000
  0.120252  0.040084  0.021411     16.000000
  0.060126  0.060126  0.021411      8.000000
  0.080168  0.060126  0.021411     16.000000
  0.100210  0.060126  0.021411     16.000000
  0.120252  0.060126  0.021411     16.000000
  0.080168  0.080168  0.021411      8.000000
  0.100210  0.080168  0.021411     16.000000
  0.120252  0.080168  0.021411     16.000000
  0.100210  0.100210  0.021411      8.000000
  0.120252  0.100210  0.021411     16.000000
  0.120252  0.120252  0.021411      8.000000
  0.000000  0.000000  0.042822      1.000000
  0.020042  0.000000  0.042822      4.000000
  0.040084  0.000000  0.042822      4.000000
  0.060126  0.000000  0.042822      4.000000
  0.080168  0.000000  0.042822      4.000000
  0.100210  0.000000  0.042822      4.000000
  0.120252  0.000000  0.042822      4.000000
  0.020042  0.020042  0.042822      4.000000
  0.040084  0.020042  0.042822      8.000000
  0.060126  0.020042  0.042822      8.000000
  0.080168  0.020042  0.042822      8.000000
  0.100210  0.020042  0.042822      8.000000
  0.120252  0.020042  0.042822      8.000000
  0.040084  0.040084  0.042822      4.000000
  0.060126  0.040084  0.042822      8.000000
  0.080168  0.040084  0.042822      8.000000
  0.100210  0.040084  0.042822      8.000000
  0.120252  0.040084  0.042822      8.000000
  0.060126  0.060126  0.042822      4.000000
  0.080168  0.060126  0.042822      8.000000
  0.100210  0.060126  0.042822      8.000000
  0.120252  0.060126  0.042822      8.000000
  0.080168  0.080168  0.042822      4.000000
  0.100210  0.080168  0.042822      8.000000
  0.120252  0.080168  0.042822      8.000000
  0.100210  0.100210  0.042822      4.000000
  0.120252  0.100210  0.042822      8.000000
  0.120252  0.120252  0.042822      4.000000
 


--------------------------------------------------------------------------------------------------------




 Dimension of arrays:
   k-points           NKPTS =     84   k-points in BZ     NKDIM =     84   number of bands    NBANDS=    128
   number of dos      NEDOS =    301   number of ions     NIONS =     12
   non local maximal  LDIM  =      6   non local SUM 2l+1 LMDIM =     18
   total plane-waves  NPLWV =  81000
   max r-space proj   IRMAX =      1   max aug-charges    IRDMAX=  28719
   dimension x,y,z NGX =    30 NGY =   30 NGZ =   90
   dimension x,y,z NGXF=    60 NGYF=   60 NGZF=  180
   support grid    NGXF=    60 NGYF=   60 NGZF=  180
   ions per type =               9   3
   NGX,Y,Z   is equivalent  to a cutoff of  12.99, 12.99, 12.81 a.u.
   NGXF,Y,Z  is equivalent  to a cutoff of  25.99, 25.99, 25.63 a.u.

 SYSTEM =  unknown system                          
 POSCAR =  Fe9 Pt3                                 

 Startparameter for this run:
   NWRITE =      2    write-flag & timer
   PREC   = accura    normal or accurate (medium, high low for compatibility)
   ISTART =      0    job   : 0-new  1-cont  2-samecut
   ICHARG =      2    charge: 1-file 2-atom 10-const
   ISPIN  =      2    spin polarized calculation?
   LNONCOLLINEAR =      F non collinear calculations
   LSORBIT =      F    spin-orbit coupling
   INIWAV =      1    electr: 0-lowe 1-rand  2-diag
   LASPH  =      F    aspherical Exc in radial PAW
 Electronic Relaxation 1
   ENCUT  =  520.0 eV  38.22 Ry    6.18 a.u.   7.14  7.14 21.71*2*pi/ulx,y,z
   ENINI  =  520.0     initial cutoff
   ENAUG  =  578.3 eV  augmentation charge cutoff
   NELM   =    200;   NELMIN=  2; NELMDL=  0     # of ELM steps 
   EDIFF  = 0.1E-05   stopping-criterion for ELM
   LREAL  =      F    real-space projection
   NLSPLINE    = F    spline interpolate recip. space projectors
   LCOMPAT=      F    compatible to vasp.4.4
   GGA_COMPAT  = T    GGA compatible to vasp.4.4-vasp.4.6
   LMAXPAW     = -100 max onsite density
   LMAXMIX     =    2 max onsite mixed and CHGCAR
   VOSKOWN=      0    Vosko Wilk Nusair interpolation
   ROPT   =    0.00000   0.00000
 Ionic relaxation
   EDIFFG = -.1E-01   stopping-criterion for IOM
   NSW    =      0    number of steps for IOM
   NBLOCK =      1;   KBLOCK =      1    inner block; outer block 
   IBRION =     -1    ionic relax: 0-MD 1-quasi-New 2-CG
   NFREE  =      0    steps in history (QN), initial steepest desc. (CG)
   ISIF   =      4    stress and relaxation
   IWAVPR =     10    prediction:  0-non 1-charg 2-wave 3-comb
   ISYM   =      2    0-nonsym 1-usesym 2-fastsym
   LCORR  =      T    Harris-Foulkes like correction to forces

   POTIM  = 0.5000    time-step for ionic-motion
   TEIN   =    0.0    initial temperature
   TEBEG  =    0.0;   TEEND  =   0.0 temperature during run
   SMASS  =  -3.00    Nose mass-parameter (am)
   estimated Nose-frequenzy (Omega)   =  0.10E-29 period in steps = 0.13E+47 mass=  -0.337E-27a.u.
   SCALEE = 1.0000    scale energy and forces
   NPACO  =    256;   APACO  = 10.0  distance and # of slots for P.C.
   PSTRESS=    0.0 pullay stress

  Mass of Ions in am
   POMASS =  55.85195.08
  Ionic Valenz
   ZVAL   =  14.00 10.00
  Atomic Wigner-Seitz radii
   RWIGS  =  -1.00 -1.00
  virtual crystal weights 
   VCA    =   1.00  1.00
   NELECT =     156.0000    total number of electrons
   NUPDOWN=      -1.0000    fix difference up-down

 DOS related values:
   EMIN   =  10.00;   EMAX   =-10.00  energy-range for DOS
   EFERMI =   0.00;   METHOD = LEGACY      
   ISMEAR =    -5;   SIGMA  =   0.20  broadening in eV -4-tet -1-fermi 0-gaus

 Electronic relaxation 2 (details)
   IALGO  =     38    algorithm
   LDIAG  =      T    sub-space diagonalisation (order eigenvalues)
   LSUBROT=      F    optimize rotation matrix (better conditioning)
   TURBO    =      0    0=normal 1=particle mesh
   IRESTART =      0    0=no restart 2=restart with 2 vectors
   NREBOOT  =      0    no. of reboots
   NMIN     =      0    reboot dimension
   EREF     =   0.00    reference energy to select bands
   IMIX   =      4    mixing-type and parameters
     AMIX     =   0.40;   BMIX     =  1.00
     AMIX_MAG =   1.60;   BMIX_MAG =  1.00
     AMIN     =   0.10
     WC   =   100.;   INIMIX=   1;  MIXPRE=   1;  MAXMIX= -45

 Intra band minimization:
   WEIMIN = 0.0000     energy-eigenvalue tresh-hold
   EBREAK =  0.20E-08  absolut break condition
   DEPER  =   0.30     relativ break condition  

   TIME   =   0.40     timestep for ELM

  volume/ion in A,a.u.               =      14.33        96.73
  Fermi-wavevector in a.u.,A,eV,Ry     =   1.584675  2.994602 34.166882  2.511195
  Thomas-Fermi vector in A             =   2.684256
 
 Write flags
   LWAVE        =      F    write WAVECAR
   LDOWNSAMPLE  =      F    k-point downsampling of WAVECAR
   LCHARG       =      T    write CHGCAR
   LVTOT        =      F    write LOCPOT, total local potential
   LVHAR        =      F    write LOCPOT, Hartree potential only
   WRT_POTENTIAL= false  ! write potential to hdf5 file
   LELF         =      F    write electronic localiz. function (ELF)
   LORBIT       =     11    0 simple, 1 ext, 2 COOP (PROOUT), +10 PAW based schemes


 Dipole corrections
   LMONO      =      F    monopole corrections only (constant potential shift)
   LDIPOL     =      F    correct potential (dipole corrections)
   IDIPOL     =      0    1-x, 2-y, 3-z, 4-all directions 
   EPSILON    =  1.0000000 bulk dielectric constant
   LVACPOTAV  =      F  vacuum potentials using an averaging scheme for the charge density
   VACPOTFLAT =  0.1000000 required flatness to determine vacuum potential
 Exchange correlation treatment:
   GGA     = PE    functional components
   XC_C    = 1    coefficients multiplying the functional components
   LIBXC   =     F    Libxc                    
   VOSKOWN =     0    Vosko Wilk Nusair interpolation
   LHFCALC =     F    Hartree Fock is set to
   LHFONE  =     F    Hartree Fock one center treatment
   AEXX    =    0.0000 exact exchange contribution

 Parameters of functionals:
   PE:
     No parameter
 
 Van der Waals corrections
   IVDW    =     0    specifies the selected vdW correction

 Linear response parameters
   LEPSILON=     F    determine dielectric tensor
   LRPA    =     F    only Hartree local field effects (RPA)
   LNABLA  =     F    use nabla operator in PAW spheres
   LVEL    =     F    velocity operator in full k-point grid
   CSHIFT  =0.1000    complex shift for real part using Kramers Kronig
   OMEGAMAX=  -1.0    maximum frequency
   DEG_THRESHOLD= 0.2000000E-02 threshold for treating states as degnerate
   RTIME   =   -0.100 relaxation time in fs
  (WPLASMAI=    0.000 imaginary part of plasma frequency in eV, 0.658/RTIME)
   DFIELD  = 0.0000000 0.0000000 0.0000000 field for delta impulse in time
 
  Optional k-point grid parameters
   LKPOINTS_OPT  =     F    use optional k-point grid
   KPOINTS_OPT_MODE=     1    mode for optional k-point grid
 
 Orbital magnetization related:
   ORBITALMAG=     F  switch on orbital magnetization
   LCHIMAG   =     F  perturbation theory with respect to B field
   DQ        =  0.001000  dq finite difference perturbation B field
   LLRAUG    =     F  two centre corrections for induced B field
   LBONE     =     F  B-component reconstruction in AE one-centre
   LVGVCALC  =     T  calculate vGv susceptibility
   LVGVAPPL  =     F  apply vGv susceptibility instead of pGv for G=0

 Random number generation:
   RANDOM_GENERATOR = DEFAULT
   PCG_SEED         = not used


--------------------------------------------------------------------------------------------------------


 Static calculation
 charge density and potential will be updated during run
 spin polarized calculation
 Variant of blocked Davidson
 Davidson routine will perform the subspace rotation
 perform sub-space diagonalisation
    after iterative eigenvector-optimisation
 modified Broyden-mixing scheme, WC =      100.0
 initial mixing is a Kerker type mixing with AMIX =  0.4000 and BMIX =      1.0000
 Hartree-type preconditioning will be used
 using additional bands           50
 reciprocal scheme for non local part
 use partial core corrections
 calculate Harris-corrections to forces 
   (improved forces if not selfconsistent)
 use gradient corrections 
 use of overlap-Matrix (Vanderbilt PP)
 Fermi weights with tetrahedron method with Bloechl corrections


--------------------------------------------------------------------------------------------------------


  energy-cutoff  :      520.00
  volume of cell :      172.00
      direct lattice vectors                 reciprocal lattice vectors
     3.838083469  0.000000000  0.000000000     0.260546705  0.000000000  0.000000000
     0.000000000  3.838083469  0.000000000     0.000000000  0.260546705  0.000000000
     0.000000000  0.000000000 11.676148669     0.000000000  0.000000000  0.085644679

  length of vectors
     3.838083469  3.838083469 11.676148669     0.260546705  0.260546705  0.085644679


 
 k-points in units of 2pi/SCALE and weight: pymatgen with grid density = 8800 / numb
   0.00000000  0.00000000  0.00000000       0.001
   0.02004205  0.00000000  0.00000000       0.006
   0.04008411  0.00000000  0.00000000       0.006
   0.06012616  0.00000000  0.00000000       0.006
   0.08016822  0.00000000  0.00000000       0.006
   0.10021027  0.00000000  0.00000000       0.006
   0.12025233  0.00000000  0.00000000       0.006
   0.02004205  0.02004205  0.00000000       0.006
   0.04008411  0.02004205  0.00000000       0.012
   0.06012616  0.02004205  0.00000000       0.012
   0.08016822  0.02004205  0.00000000       0.012
   0.10021027  0.02004205  0.00000000       0.012
   0.12025233  0.02004205  0.00000000       0.012
   0.04008411  0.04008411  0.00000000       0.006
   0.06012616  0.04008411  0.00000000       0.012
   0.08016822  0.04008411  0.00000000       0.012
   0.10021027  0.04008411  0.00000000       0.012
   0.12025233  0.04008411  0.00000000       0.012
   0.06012616  0.06012616  0.00000000       0.006
   0.08016822  0.06012616  0.00000000       0.012
   0.10021027  0.06012616  0.00000000       0.012
   0.12025233  0.06012616  0.00000000       0.012
   0.08016822  0.08016822  0.00000000       0.006
   0.10021027  0.08016822  0.00000000       0.012
   0.12025233  0.08016822  0.00000000       0.012
   0.10021027  0.10021027  0.00000000       0.006
   0.12025233  0.10021027  0.00000000       0.012
   0.12025233  0.12025233  0.00000000       0.006
   0.00000000  0.00000000  0.02141117       0.003
   0.02004205  0.00000000  0.02141117       0.012
   0.04008411  0.00000000  0.02141117       0.012
   0.06012616  0.00000000  0.02141117       0.012
   0.08016822  0.00000000  0.02141117       0.012
   0.10021027  0.00000000  0.02141117       0.012
   0.12025233  0.00000000  0.02141117       0.012
   0.02004205  0.02004205  0.02141117       0.012
   0.04008411  0.02004205  0.02141117       0.024
   0.06012616  0.02004205  0.02141117       0.024
   0.08016822  0.02004205  0.02141117       0.024
   0.10021027  0.02004205  0.02141117       0.024
   0.12025233  0.02004205  0.02141117       0.024
   0.04008411  0.04008411  0.02141117       0.012
   0.06012616  0.04008411  0.02141117       0.024
   0.08016822  0.04008411  0.02141117       0.024
   0.10021027  0.04008411  0.02141117       0.024
   0.12025233  0.04008411  0.02141117       0.024
   0.06012616  0.06012616  0.02141117       0.012
   0.08016822  0.06012616  0.02141117       0.024
   0.10021027  0.06012616  0.02141117       0.024
   0.12025233  0.06012616  0.02141117       0.024
   0.08016822  0.08016822  0.02141117       0.012
   0.10021027  0.08016822  0.02141117       0.024
   0.12025233  0.08016822  0.02141117       0.024
   0.10021027  0.10021027  0.02141117       0.012
   0.12025233  0.10021027  0.02141117       0.024
   0.12025233  0.12025233  0.02141117       0.012
   0.00000000  0.00000000  0.04282234       0.001
   0.02004205  0.00000000  0.04282234       0.006
   0.04008411  0.00000000  0.04282234       0.006
   0.06012616  0.00000000  0.04282234       0.006
   0.08016822  0.00000000  0.04282234       0.006
   0.10021027  0.00000000  0.04282234       0.006
   0.12025233  0.00000000  0.04282234       0.006
   0.02004205  0.02004205  0.04282234       0.006
   0.04008411  0.02004205  0.04282234       0.012
   0.06012616  0.02004205  0.04282234       0.012
   0.08016822  0.02004205  0.04282234       0.012
   0.10021027  0.02004205  0.04282234       0.012
   0.12025233  0.02004205  0.04282234       0.012
   0.04008411  0.04008411  0.04282234       0.006
   0.06012616  0.04008411  0.04282234       0.012
   0.08016822  0.04008411  0.04282234       0.012
   0.10021027  0.04008411  0.04282234       0.012
   0.12025233  0.04008411  0.04282234       0.012
   0.06012616  0.06012616  0.04282234       0.006
   0.08016822  0.06012616  0.04282234       0.012
   0.10021027  0.06012616  0.04282234       0.012
   0.12025233  0.06012616  0.04282234       0.012
   0.08016822  0.08016822  0.04282234       0.006
   0.10021027  0.08016822  0.04282234       0.012
   0.12025233  0.08016822  0.04282234       0.012
   0.10021027  0.10021027  0.04282234       0.006
   0.12025233  0.10021027  0.04282234       0.012
   0.12025233  0.12025233  0.04282234       0.006
 
 k-points in reciprocal lattice and weights: pymatgen with grid density = 8800 / numb
   0.00000000  0.00000000  0.00000000       0.001
   0.07692308  0.00000000  0.00000000       0.006
   0.15384615  0.00000000  0.00000000       0.006
   0.23076923  0.00000000  0.00000000       0.006
   0.30769231  0.00000000  0.00000000       0.006
   0.38461538  0.00000000  0.00000000       0.006
   0.46153846  0.00000000  0.00000000       0.006
   0.07692308  0.07692308  0.00000000       0.006
   0.15384615  0.07692308  0.00000000       0.012
   0.23076923  0.07692308  0.00000000       0.012
   0.30769231  0.07692308  0.00000000       0.012
   0.38461538  0.07692308  0.00000000       0.012
   0.46153846  0.07692308  0.00000000       0.012
   0.15384615  0.15384615  0.00000000       0.006
   0.23076923  0.15384615  0.00000000       0.012
   0.30769231  0.15384615  0.00000000       0.012
   0.38461538  0.15384615  0.00000000       0.012
   0.46153846  0.15384615  0.00000000       0.012
   0.23076923  0.23076923  0.00000000       0.006
   0.30769231  0.23076923  0.00000000       0.012
   0.38461538  0.23076923  0.00000000       0.012
   0.46153846  0.23076923  0.00000000       0.012
   0.30769231  0.30769231  0.00000000       0.006
   0.38461538  0.30769231  0.00000000       0.012
   0.46153846  0.30769231  0.00000000       0.012
   0.38461538  0.38461538  0.00000000       0.006
   0.46153846  0.38461538  0.00000000       0.012
   0.46153846  0.46153846  0.00000000       0.006
   0.00000000  0.00000000  0.25000000       0.003
   0.07692308  0.00000000  0.25000000       0.012
   0.15384615  0.00000000  0.25000000       0.012
   0.23076923  0.00000000  0.25000000       0.012
   0.30769231  0.00000000  0.25000000       0.012
   0.38461538  0.00000000  0.25000000       0.012
   0.46153846  0.00000000  0.25000000       0.012
   0.07692308  0.07692308  0.25000000       0.012
   0.15384615  0.07692308  0.25000000       0.024
   0.23076923  0.07692308  0.25000000       0.024
   0.30769231  0.07692308  0.25000000       0.024
   0.38461538  0.07692308  0.25000000       0.024
   0.46153846  0.07692308  0.25000000       0.024
   0.15384615  0.15384615  0.25000000       0.012
   0.23076923  0.15384615  0.25000000       0.024
   0.30769231  0.15384615  0.25000000       0.024
   0.38461538  0.15384615  0.25000000       0.024
   0.46153846  0.15384615  0.25000000       0.024
   0.23076923  0.23076923  0.25000000       0.012
   0.30769231  0.23076923  0.25000000       0.024
   0.38461538  0.23076923  0.25000000       0.024
   0.46153846  0.23076923  0.25000000       0.024
   0.30769231  0.30769231  0.25000000       0.012
   0.38461538  0.30769231  0.25000000       0.024
   0.46153846  0.30769231  0.25000000       0.024
   0.38461538  0.38461538  0.25000000       0.012
   0.46153846  0.38461538  0.25000000       0.024
   0.46153846  0.46153846  0.25000000       0.012
   0.00000000  0.00000000  0.50000000       0.001
   0.07692308  0.00000000  0.50000000       0.006
   0.15384615  0.00000000  0.50000000       0.006
   0.23076923  0.00000000  0.50000000       0.006
   0.30769231  0.00000000  0.50000000       0.006
   0.38461538  0.00000000  0.50000000       0.006
   0.46153846  0.00000000  0.50000000       0.006
   0.07692308  0.07692308  0.50000000       0.006
   0.15384615  0.07692308  0.50000000       0.012
   0.23076923  0.07692308  0.50000000       0.012
   0.30769231  0.07692308  0.50000000       0.012
   0.38461538  0.07692308  0.50000000       0.012
   0.46153846  0.07692308  0.50000000       0.012
   0.15384615  0.15384615  0.50000000       0.006
   0.23076923  0.15384615  0.50000000       0.012
   0.30769231  0.15384615  0.50000000       0.012
   0.38461538  0.15384615  0.50000000       0.012
   0.46153846  0.15384615  0.50000000       0.012
   0.23076923  0.23076923  0.50000000       0.006
   0.30769231  0.23076923  0.50000000       0.012
   0.38461538  0.23076923  0.50000000       0.012
   0.46153846  0.23076923  0.50000000       0.012
   0.30769231  0.30769231  0.50000000       0.006
   0.38461538  0.30769231  0.50000000       0.012
   0.46153846  0.30769231  0.50000000       0.012
   0.38461538  0.38461538  0.50000000       0.006
   0.46153846  0.38461538  0.50000000       0.012
   0.46153846  0.46153846  0.50000000       0.006
 
 position of ions in fractional coordinates (direct lattice) 
   0.00000000  0.50000000  0.16665454
   0.00000000  0.50000000  0.49939639
   0.00000000  0.50000000  0.83117267
   0.50000000  0.50000000  0.00875540
   0.50000000  0.50000000  0.34513733
   0.50000000  0.50000000  0.66238957
   0.50000000  0.00000000  0.16665454
   0.50000000  0.00000000  0.49939639
   0.50000000  0.00000000  0.83117267
   0.00000000  0.00000000  0.99631737
   0.00000000  0.00000000  0.32791576
   0.00000000  0.00000000  0.66503738
 
 position of ions in cartesian coordinates  (Angst):
   0.00000000  1.91904173  1.94588317
   0.00000000  1.91904173  5.83102647
   0.00000000  1.91904173  9.70489564
   1.91904173  1.91904173  0.10222933
   1.91904173  1.91904173  4.02987472
   1.91904173  1.91904173  7.73415910
   1.91904173  0.00000000  1.94588317
   1.91904173  0.00000000  5.83102647
   1.91904173  0.00000000  9.70489564
   0.00000000  0.00000000 11.63314973
   0.00000000  0.00000000  3.82879322
   0.00000000  0.00000000  7.76507535
 


--------------------------------------------------------------------------------------------------------


 k-point     1 :   0.0000 0.0000 0.0000  plane waves:    4595
 k-point     2 :   0.0769 0.0000 0.0000  plane waves:    4587
 k-point     3 :   0.1538 0.0000 0.0000  plane waves:    4606
 k-point     4 :   0.2308 0.0000 0.0000  plane waves:    4630
 k-point     5 :   0.3077 0.0000 0.0000  plane waves:    4650
 k-point     6 :   0.3846 0.0000 0.0000  plane waves:    4638
 k-point     7 :   0.4615 0.0000 0.0000  plane waves:    4630
 k-point     8 :   0.0769 0.0769 0.0000  plane waves:    4584
 k-point     9 :   0.1538 0.0769 0.0000  plane waves:    4600
 k-point    10 :   0.2308 0.0769 0.0000  plane waves:    4632
 k-point    11 :   0.3077 0.0769 0.0000  plane waves:    4648
 k-point    12 :   0.3846 0.0769 0.0000  plane waves:    4652
 k-point    13 :   0.4615 0.0769 0.0000  plane waves:    4649
 k-point    14 :   0.1538 0.1538 0.0000  plane waves:    4604
 k-point    15 :   0.2308 0.1538 0.0000  plane waves:    4622
 k-point    16 :   0.3077 0.1538 0.0000  plane waves:    4637
 k-point    17 :   0.3846 0.1538 0.0000  plane waves:    4637
 k-point    18 :   0.4615 0.1538 0.0000  plane waves:    4616
 k-point    19 :   0.2308 0.2308 0.0000  plane waves:    4636
 k-point    20 :   0.3077 0.2308 0.0000  plane waves:    4634
 k-point    21 :   0.3846 0.2308 0.0000  plane waves:    4626
 k-point    22 :   0.4615 0.2308 0.0000  plane waves:    4629
 k-point    23 :   0.3077 0.3077 0.0000  plane waves:    4634
 k-point    24 :   0.3846 0.3077 0.0000  plane waves:    4642
 k-point    25 :   0.4615 0.3077 0.0000  plane waves:    4637
 k-point    26 :   0.3846 0.3846 0.0000  plane waves:    4654
 k-point    27 :   0.4615 0.3846 0.0000  plane waves:    4650
 k-point    28 :   0.4615 0.4615 0.0000  plane waves:    4648
 k-point    29 :   0.0000 0.0000 0.2500  plane waves:    4599
 k-point    30 :   0.0769 0.0000 0.2500  plane waves:    4598
 k-point    31 :   0.1538 0.0000 0.2500  plane waves:    4604
 k-point    32 :   0.2308 0.0000 0.2500  plane waves:    4630
 k-point    33 :   0.3077 0.0000 0.2500  plane waves:    4635
 k-point    34 :   0.3846 0.0000 0.2500  plane waves:    4640
 k-point    35 :   0.4615 0.0000 0.2500  plane waves:    4636
 k-point    36 :   0.0769 0.0769 0.2500  plane waves:    4602
 k-point    37 :   0.1538 0.0769 0.2500  plane waves:    4606
 k-point    38 :   0.2308 0.0769 0.2500  plane waves:    4622
 k-point    39 :   0.3077 0.0769 0.2500  plane waves:    4638
 k-point    40 :   0.3846 0.0769 0.2500  plane waves:    4642
 k-point    41 :   0.4615 0.0769 0.2500  plane waves:    4641
 k-point    42 :   0.1538 0.1538 0.2500  plane waves:    4616
 k-point    43 :   0.2308 0.1538 0.2500  plane waves:    4626
 k-point    44 :   0.3077 0.1538 0.2500  plane waves:    4641
 k-point    45 :   0.3846 0.1538 0.2500  plane waves:    4634
 k-point    46 :   0.4615 0.1538 0.2500  plane waves:    4638
 k-point    47 :   0.2308 0.2308 0.2500  plane waves:    4634
 k-point    48 :   0.3077 0.2308 0.2500  plane waves:    4634
 k-point    49 :   0.3846 0.2308 0.2500  plane waves:    4633
 k-point    50 :   0.4615 0.2308 0.2500  plane waves:    4631
 k-point    51 :   0.3077 0.3077 0.2500  plane waves:    4629
 k-point    52 :   0.3846 0.3077 0.2500  plane waves:    4630
 k-point    53 :   0.4615 0.3077 0.2500  plane waves:    4632
 k-point    54 :   0.3846 0.3846 0.2500  plane waves:    4639
 k-point    55 :   0.4615 0.3846 0.2500  plane waves:    4638
 k-point    56 :   0.4615 0.4615 0.2500  plane waves:    4651
 k-point    57 :   0.0000 0.0000 0.5000  plane waves:    4596
 k-point    58 :   0.0769 0.0000 0.5000  plane waves:    4598
 k-point    59 :   0.1538 0.0000 0.5000  plane waves:    4612
 k-point    60 :   0.2308 0.0000 0.5000  plane waves:    4626
 k-point    61 :   0.3077 0.0000 0.5000  plane waves:    4636
 k-point    62 :   0.3846 0.0000 0.5000  plane waves:    4634
 k-point    63 :   0.4615 0.0000 0.5000  plane waves:    4628
 k-point    64 :   0.0769 0.0769 0.5000  plane waves:    4614
 k-point    65 :   0.1538 0.0769 0.5000  plane waves:    4610
 k-point    66 :   0.2308 0.0769 0.5000  plane waves:    4622
 k-point    67 :   0.3077 0.0769 0.5000  plane waves:    4638
 k-point    68 :   0.3846 0.0769 0.5000  plane waves:    4634
 k-point    69 :   0.4615 0.0769 0.5000  plane waves:    4640
 k-point    70 :   0.1538 0.1538 0.5000  plane waves:    4614
 k-point    71 :   0.2308 0.1538 0.5000  plane waves:    4622
 k-point    72 :   0.3077 0.1538 0.5000  plane waves:    4622
 k-point    73 :   0.3846 0.1538 0.5000  plane waves:    4636
 k-point    74 :   0.4615 0.1538 0.5000  plane waves:    4638
 k-point    75 :   0.2308 0.2308 0.5000  plane waves:    4622
 k-point    76 :   0.3077 0.2308 0.5000  plane waves:    4640
 k-point    77 :   0.3846 0.2308 0.5000  plane waves:    4632
 k-point    78 :   0.4615 0.2308 0.5000  plane waves:    4638
 k-point    79 :   0.3077 0.3077 0.5000  plane waves:    4624
 k-point    80 :   0.3846 0.3077 0.5000  plane waves:    4624
 k-point    81 :   0.4615 0.3077 0.5000  plane waves:    4642
 k-point    82 :   0.3846 0.3846 0.5000  plane waves:    4650
 k-point    83 :   0.4615 0.3846 0.5000  plane waves:    4648
 k-point    84 :   0.4615 0.4615 0.5000  plane waves:    4636

 maximum and minimum number of plane-waves per node :      4654     4584

 maximum number of plane-waves:      4654
 maximum index in each direction: 
   IXMAX=    7   IYMAX=    7   IZMAX=   21
   IXMIN=   -7   IYMIN=   -7   IZMIN=  -22


 serial   3D FFT for wavefunctions
 parallel 3D FFT for charge:
    minimum data exchange during FFTs selected (reduces bandwidth)


 total amount of memory used by VASP MPI-rank0   206243. kBytes
=======================================================================

   base      :      30000. kBytes
   nonl-proj :     113922. kBytes
   fftplans  :       1055. kBytes
   grid      :       8252. kBytes
   one-center:        373. kBytes
   wavefun   :      52641. kBytes
 
     INWAV:  cpu time      0.0000: real time      0.0000
 Broyden mixing: mesh for mixing (old mesh)
   NGX = 15   NGY = 15   NGZ = 43
  (NGX  = 60   NGY  = 60   NGZ  =180)
  gives a total of   9675 points

 initial charge density was supplied:
 charge density of overlapping atoms calculated
 number of electron     156.0000000 magnetization       8.7430000
 keeping initial charge density in first step


--------------------------------------------------------------------------------------------------------


 Maximum index for augmentation-charges         1101 (set IRDMAX)


--------------------------------------------------------------------------------------------------------


 First call to EWALD:  gamma=   0.319
 Maximum number of real-space cells 4x 4x 2
 Maximum number of reciprocal cells 2x 2x 5

    FEWALD:  cpu time      0.0010: real time      0.0010


--------------------------------------- Ionic step        1  -------------------------------------------




--------------------------------------- Iteration      1(   1)  ---------------------------------------


    POTLOK:  cpu time      0.0291: real time      0.0932
    SETDIJ:  cpu time      0.0095: real time      0.0101
     EDDAV:  cpu time      6.8103: real time      6.8605
 BZINTS: Fermi energy:   21.877700;  156.000000 electrons
         Band energy: 0.354817E+03;  BLOECHL correction:   -0.072430
       DOS:  cpu time      0.1238: real time      0.1253
    --------------------------------------------
      LOOP:  cpu time      6.9727: real time      7.0891

 eigenvalue-minimisations  : 43008
 total energy-change (2. order) : 0.1774082E+04  (-0.8562361E+04)
 number of electron     156.0000000 magnetization       8.7430000
 augmentation part      156.0000000 magnetization       8.7430000

 Free energy of the ion-electron system (eV)
  ---------------------------------------------------
  alpha Z        PSCENC =       989.47749747
  Ewald energy   TEWEN  =    -17495.22275337
  -Hartree energ DENC   =     -6308.98954811
  -exchange      EXHF   =         0.00000000
  -V(xc)+E(xc)   XCENC  =       653.75783083
  PAW double counting   =     20093.29468325   -20817.15564120
  entropy T*S    EENTRO =         0.00000000
  eigenvalues    EBANDS =       354.81664390
  atomic energy  EATOM  =     24304.10294433
  Solvation  Ediel_sol  =         0.00000000
  ---------------------------------------------------
  free energy    TOTEN  =      1774.08165709 eV

  energy without entropy =     1774.08165709  energy(sigma->0) =     1774.08165709


--------------------------------------------------------------------------------------------------------




--------------------------------------- Iteration      1(   2)  ---------------------------------------


     EDDAV:  cpu time      6.7775: real time      6.8358
 BZINTS: Fermi energy:   10.945456;  156.000000 electrons
         Band energy:-0.141300E+04;  BLOECHL correction:   -0.019494
       DOS:  cpu time      0.1257: real time      0.1271
    --------------------------------------------
      LOOP:  cpu time      6.9032: real time      6.9629

 eigenvalue-minimisations  : 43040
 total energy-change (2. order) :-0.1767815E+04  (-0.1679588E+04)
 number of electron     156.0000000 magnetization       8.7430000
 augmentation part      156.0000000 magnetization       8.7430000

 Free energy of the ion-electron system (eV)
  ---------------------------------------------------
  alpha Z        PSCENC =       989.47749747
  Ewald energy   TEWEN  =    -17495.22275337
  -Hartree energ DENC   =     -6308.98954811
  -exchange      EXHF   =         0.00000000
  -V(xc)+E(xc)   XCENC  =       653.75783083
  PAW double counting   =     20093.29468325   -20817.15564120
  entropy T*S    EENTRO =         0.00000000
  eigenvalues    EBANDS =     -1412.99788059
  atomic energy  EATOM  =     24304.10294433
  Solvation  Ediel_sol  =         0.00000000
  ---------------------------------------------------
  free energy    TOTEN  =         6.26713260 eV

  energy without entropy =        6.26713260  energy(sigma->0) =        6.26713260


--------------------------------------------------------------------------------------------------------




--------------------------------------- Iteration      1(   3)  ---------------------------------------


     EDDAV:  cpu time      8.0232: real time      8.0939
 BZINTS: Fermi energy:   10.369476;  156.000000 electrons
         Band energy:-0.152159E+04;  BLOECHL correction:   -0.018740
       DOS:  cpu time      0.1258: real time      0.1269
    --------------------------------------------
      LOOP:  cpu time      8.1490: real time      8.2208

 eigenvalue-minimisations  : 50464
 total energy-change (2. order) :-0.1085952E+03  (-0.1071428E+03)
 number of electron     156.0000000 magnetization       8.7430000
 augmentation part      156.0000000 magnetization       8.7430000

 Free energy of the ion-electron system (eV)
  ---------------------------------------------------
  alpha Z        PSCENC =       989.47749747
  Ewald energy   TEWEN  =    -17495.22275337
  -Hartree energ DENC   =     -6308.98954811
  -exchange      EXHF   =         0.00000000
  -V(xc)+E(xc)   XCENC  =       653.75783083
  PAW double counting   =     20093.29468325   -20817.15564120
  entropy T*S    EENTRO =         0.00000000
  eigenvalues    EBANDS =     -1521.59304689
  atomic energy  EATOM  =     24304.10294433
  Solvation  Ediel_sol  =         0.00000000
  ---------------------------------------------------
  free energy    TOTEN  =      -102.32803370 eV

  energy without entropy =     -102.32803370  energy(sigma->0) =     -102.32803370


--------------------------------------------------------------------------------------------------------




--------------------------------------- Iteration      1(   4)  ---------------------------------------


     EDDAV:  cpu time      7.3065: real time      7.3735
 BZINTS: Fermi energy:   10.364371;  156.000000 electrons
         Band energy:-0.152327E+04;  BLOECHL correction:   -0.018717
       DOS:  cpu time      0.1273: real time      0.1283
    --------------------------------------------
      LOOP:  cpu time      7.4338: real time      7.5019

 eigenvalue-minimisations  : 46016
 total energy-change (2. order) :-0.1680356E+01  (-0.1679984E+01)
 number of electron     156.0000000 magnetization       8.7430000
 augmentation part      156.0000000 magnetization       8.7430000

 Free energy of the ion-electron system (eV)
  ---------------------------------------------------
  alpha Z        PSCENC =       989.47749747
  Ewald energy   TEWEN  =    -17495.22275337
  -Hartree energ DENC   =     -6308.98954811
  -exchange      EXHF   =         0.00000000
  -V(xc)+E(xc)   XCENC  =       653.75783083
  PAW double counting   =     20093.29468325   -20817.15564120
  entropy T*S    EENTRO =         0.00000000
  eigenvalues    EBANDS =     -1523.27340249
  atomic energy  EATOM  =     24304.10294433
  Solvation  Ediel_sol  =         0.00000000
  ---------------------------------------------------
  free energy    TOTEN  =      -104.00838930 eV

  energy without entropy =     -104.00838930  energy(sigma->0) =     -104.00838930


--------------------------------------------------------------------------------------------------------




--------------------------------------- Iteration      1(   5)  ---------------------------------------


     EDDAV:  cpu time      8.2554: real time      8.3177
 BZINTS: Fermi energy:   10.364324;  156.000000 electrons
         Band energy:-0.152331E+04;  BLOECHL correction:   -0.018717
       DOS:  cpu time      0.1265: real time      0.1275
    CHARGE:  cpu time      0.1841: real time      0.1857
    MIXING:  cpu time      0.0055: real time      0.0058
    --------------------------------------------
      LOOP:  cpu time      8.5715: real time      8.6366

 eigenvalue-minimisations  : 52576
 total energy-change (2. order) :-0.3598243E-01  (-0.3598133E-01)
 number of electron     155.9999851 magnetization       8.4779506
 augmentation part       79.2968848 magnetization       6.1539172

 Broyden mixing:
  rms(total) = 0.34936E+01    rms(broyden)= 0.34934E+01
  rms(prec ) = 0.40685E+01
  weight for this iteration     100.00

 Free energy of the ion-electron system (eV)
  ---------------------------------------------------
  alpha Z        PSCENC =       989.47749747
  Ewald energy   TEWEN  =    -17495.22275337
  -Hartree energ DENC   =     -6308.98954811
  -exchange      EXHF   =         0.00000000
  -V(xc)+E(xc)   XCENC  =       653.75783083
  PAW double counting   =     20093.29468325   -20817.15564120
  entropy T*S    EENTRO =         0.00000000
  eigenvalues    EBANDS =     -1523.30938491
  atomic energy  EATOM  =     24304.10294433
  Solvation  Ediel_sol  =         0.00000000
  ---------------------------------------------------
  free energy    TOTEN  =      -104.04437172 eV

  energy without entropy =     -104.04437172  energy(sigma->0) =     -104.04437172


--------------------------------------------------------------------------------------------------------




--------------------------------------- Iteration      1(   6)  ---------------------------------------


    POTLOK:  cpu time      0.0416: real time      0.0503
    SETDIJ:  cpu time      0.0085: real time      0.0086
     EDDAV:  cpu time      8.1650: real time      8.2275
 BZINTS: Fermi energy:    7.673293;  156.000000 electrons
         Band energy:-0.198587E+04;  BLOECHL correction:   -0.016491
       DOS:  cpu time      0.1325: real time      0.1335
    CHARGE:  cpu time      0.1813: real time      0.1825
    MIXING:  cpu time      0.0041: real time      0.0080
    --------------------------------------------
      LOOP:  cpu time      8.5331: real time      8.6104

 eigenvalue-minimisations  : 51680
 total energy-change (2. order) :-0.1186307E+02  (-0.1804547E+02)
 number of electron     155.9999830 magnetization       8.4536017
 augmentation part       89.6611117 magnetization       6.1781328

 Broyden mixing:
  rms(total) = 0.76039E+01    rms(broyden)= 0.76038E+01
  rms(prec ) = 0.11195E+02
  weight for this iteration     100.00

 eigenvalues of (default mixing * dielectric matrix)
  average eigenvalue GAMMA=   0.1785
  0.1785

 Free energy of the ion-electron system (eV)
  ---------------------------------------------------
  alpha Z        PSCENC =       989.47749747
  Ewald energy   TEWEN  =    -17495.22275337
  -Hartree energ DENC   =     -5867.56399031
  -exchange      EXHF   =         0.00000000
  -V(xc)+E(xc)   XCENC  =       636.16666370
  PAW double counting   =     20119.46837060   -20816.46387874
  entropy T*S    EENTRO =         0.00000000
  eigenvalues    EBANDS =     -1985.87229742
  atomic energy  EATOM  =     24304.10294433
  Solvation  Ediel_sol  =         0.00000000
  ---------------------------------------------------
  free energy    TOTEN  =      -115.90744375 eV

  energy without entropy =     -115.90744375  energy(sigma->0) =     -115.90744375


--------------------------------------------------------------------------------------------------------




--------------------------------------- Iteration      1(   7)  ---------------------------------------


    POTLOK:  cpu time      0.0404: real time      0.0483
    SETDIJ:  cpu time      0.0085: real time      0.0085
     EDDAV:  cpu time      8.1934: real time      8.2552
 BZINTS: Fermi energy:    8.300972;  156.000000 electrons
         Band energy:-0.188050E+04;  BLOECHL correction:   -0.014921
       DOS:  cpu time      0.1326: real time      0.1341
    CHARGE:  cpu time      0.1797: real time      0.1807
    MIXING:  cpu time      0.0033: real time      0.0043
    --------------------------------------------
      LOOP:  cpu time      8.5579: real time      8.6312

 eigenvalue-minimisations  : 52416
 total energy-change (2. order) : 0.9117585E+01  (-0.4066707E+02)
 number of electron     155.9999828 magnetization       7.8708363
 augmentation part       86.5567622 magnetization       7.8015968

 Broyden mixing:
  rms(total) = 0.60236E+01    rms(broyden)= 0.60233E+01
  rms(prec ) = 0.93331E+01
  weight for this iteration     100.00

 eigenvalues of (default mixing * dielectric matrix)
  average eigenvalue GAMMA=   0.2319
  0.3513  0.1125

 Free energy of the ion-electron system (eV)
  ---------------------------------------------------
  alpha Z        PSCENC =       989.47749747
  Ewald energy   TEWEN  =    -17495.22275337
  -Hartree energ DENC   =     -5949.91273116
  -exchange      EXHF   =         0.00000000
  -V(xc)+E(xc)   XCENC  =       638.06341349
  PAW double counting   =     20406.15237983   -21118.94945388
  entropy T*S    EENTRO =         0.00000000
  eigenvalues    EBANDS =     -1880.50115566
  atomic energy  EATOM  =     24304.10294433
  Solvation  Ediel_sol  =         0.00000000
  ---------------------------------------------------
  free energy    TOTEN  =      -106.78985896 eV

  energy without entropy =     -106.78985896  energy(sigma->0) =     -106.78985896


--------------------------------------------------------------------------------------------------------




--------------------------------------- Iteration      1(   8)  ---------------------------------------


    POTLOK:  cpu time      0.0417: real time      0.0497
    SETDIJ:  cpu time      0.0082: real time      0.0083
     EDDAV:  cpu time      8.0664: real time      8.1290
 BZINTS: Fermi energy:    8.798617;  156.000000 electrons
         Band energy:-0.176926E+04;  BLOECHL correction:   -0.013753
       DOS:  cpu time      0.1327: real time      0.1340
    CHARGE:  cpu time      0.1781: real time      0.1801
    MIXING:  cpu time      0.0019: real time      0.0019
    --------------------------------------------
      LOOP:  cpu time      8.4290: real time      8.5031

 eigenvalue-minimisations  : 51296
 total energy-change (2. order) : 0.1240588E+02  (-0.1024756E+02)
 number of electron     155.9999842 magnetization       8.0139191
 augmentation part       84.1577858 magnetization       4.5626112

 Broyden mixing:
  rms(total) = 0.24480E+01    rms(broyden)= 0.24476E+01
  rms(prec ) = 0.34566E+01
  weight for this iteration     100.00

 eigenvalues of (default mixing * dielectric matrix)
  average eigenvalue GAMMA=   0.3954
  0.7930  0.2915  0.1018

 Free energy of the ion-electron system (eV)
  ---------------------------------------------------
  alpha Z        PSCENC =       989.47749747
  Ewald energy   TEWEN  =    -17495.22275337
  -Hartree energ DENC   =     -6032.09654770
  -exchange      EXHF   =         0.00000000
  -V(xc)+E(xc)   XCENC  =       640.32270758
  PAW double counting   =     20785.26068173   -21516.96783520
  entropy T*S    EENTRO =         0.00000000
  eigenvalues    EBANDS =     -1769.26067060
  atomic energy  EATOM  =     24304.10294433
  Solvation  Ediel_sol  =         0.00000000
  ---------------------------------------------------
  free energy    TOTEN  =       -94.38397576 eV

  energy without entropy =      -94.38397576  energy(sigma->0) =      -94.38397576


--------------------------------------------------------------------------------------------------------




--------------------------------------- Iteration      1(   9)  ---------------------------------------


    POTLOK:  cpu time      0.0408: real time      0.0485
    SETDIJ:  cpu time      0.0086: real time      0.0087
     EDDAV:  cpu time      8.2523: real time      8.3144
 BZINTS: Fermi energy:    8.765081;  156.000000 electrons
         Band energy:-0.179118E+04;  BLOECHL correction:   -0.017133
       DOS:  cpu time      0.1341: real time      0.1351
    CHARGE:  cpu time      0.1791: real time      0.1801
    MIXING:  cpu time      0.0021: real time      0.0021
    --------------------------------------------
      LOOP:  cpu time      8.6170: real time      8.6889

 eigenvalue-minimisations  : 52192
 total energy-change (2. order) :-0.7390725E+01  (-0.9817784E+01)
 number of electron     155.9999850 magnetization       7.8778590
 augmentation part       84.6273999 magnetization       7.4041235

 Broyden mixing:
  rms(total) = 0.53323E+01    rms(broyden)= 0.53321E+01
  rms(prec ) = 0.80005E+01
  weight for this iteration     100.00

 eigenvalues of (default mixing * dielectric matrix)
  average eigenvalue GAMMA=   0.3861
  1.0111  0.3165  0.0943  0.1228

 Free energy of the ion-electron system (eV)
  ---------------------------------------------------
  alpha Z        PSCENC =       989.47749747
  Ewald energy   TEWEN  =    -17495.22275337
  -Hartree energ DENC   =     -6010.57203611
  -exchange      EXHF   =         0.00000000
  -V(xc)+E(xc)   XCENC  =       640.28305420
  PAW double counting   =     21007.45372935   -21746.11618980
  entropy T*S    EENTRO =         0.00000000
  eigenvalues    EBANDS =     -1791.18094670
  atomic energy  EATOM  =     24304.10294433
  Solvation  Ediel_sol  =         0.00000000
  ---------------------------------------------------
  free energy    TOTEN  =      -101.77470064 eV

  energy without entropy =     -101.77470064  energy(sigma->0) =     -101.77470064


--------------------------------------------------------------------------------------------------------




--------------------------------------- Iteration      1(  10)  ---------------------------------------


    POTLOK:  cpu time      0.0413: real time      0.0486
    SETDIJ:  cpu time      0.0086: real time      0.0087
     EDDAV:  cpu time      8.2201: real time      8.2827
 BZINTS: Fermi energy:    8.502922;  156.000000 electrons
         Band energy:-0.180208E+04;  BLOECHL correction:   -0.013757
       DOS:  cpu time      0.1335: real time      0.1344
    CHARGE:  cpu time      0.1793: real time      0.1808
    MIXING:  cpu time      0.0021: real time      0.0027
    --------------------------------------------
      LOOP:  cpu time      8.5850: real time      8.6578

 eigenvalue-minimisations  : 51936
 total energy-change (2. order) : 0.9100516E+01  (-0.1052074E+02)
 number of electron     155.9999839 magnetization       7.9203196
 augmentation part       85.0195170 magnetization       5.6303182

 Broyden mixing:
  rms(total) = 0.17111E+01    rms(broyden)= 0.17108E+01
  rms(prec ) = 0.24706E+01
  weight for this iteration     100.00

 eigenvalues of (default mixing * dielectric matrix)
  average eigenvalue GAMMA=   0.3541
  1.0005  0.2899  0.2899  0.0996  0.0907

 Free energy of the ion-electron system (eV)
  ---------------------------------------------------
  alpha Z        PSCENC =       989.47749747
  Ewald energy   TEWEN  =    -17495.22275337
  -Hartree energ DENC   =     -5986.56578257
  -exchange      EXHF   =         0.00000000
  -V(xc)+E(xc)   XCENC  =       639.44926531
  PAW double counting   =     21130.44095954   -21872.28034646
  entropy T*S    EENTRO =         0.00000000
  eigenvalues    EBANDS =     -1802.07596898
  atomic energy  EATOM  =     24304.10294433
  Solvation  Ediel_sol  =         0.00000000
  ---------------------------------------------------
  free energy    TOTEN  =       -92.67418474 eV

  energy without entropy =      -92.67418474  energy(sigma->0) =      -92.67418474


--------------------------------------------------------------------------------------------------------




--------------------------------------- Iteration      1(  11)  ---------------------------------------


    POTLOK:  cpu time      0.0472: real time      0.0481
    SETDIJ:  cpu time      0.0084: real time      0.0085
     EDDAV:  cpu time      7.9514: real time      8.0115
 BZINTS: Fermi energy:    8.534815;  156.000000 electrons
         Band energy:-0.180103E+04;  BLOECHL correction:   -0.019790
       DOS:  cpu time      0.1330: real time      0.1340
    CHARGE:  cpu time      0.1760: real time      0.1770
    MIXING:  cpu time      0.0022: real time      0.0023
    --------------------------------------------
      LOOP:  cpu time      8.3183: real time      8.3814

 eigenvalue-minimisations  : 50976
 total energy-change (2. order) : 0.1496866E+00  (-0.1605265E+01)
 number of electron     155.9999844 magnetization       7.9972805
 augmentation part       84.9018354 magnetization       5.8801543

 Broyden mixing:
  rms(total) = 0.15047E+01    rms(broyden)= 0.15046E+01
  rms(prec ) = 0.18410E+01
  weight for this iteration     100.00

 eigenvalues of (default mixing * dielectric matrix)
  average eigenvalue GAMMA=   0.3716
  1.0675  0.4175  0.4175  0.1231  0.0944  0.1095

 Free energy of the ion-electron system (eV)
  ---------------------------------------------------
  alpha Z        PSCENC =       989.47749747
  Ewald energy   TEWEN  =    -17495.22275337
  -Hartree energ DENC   =     -5985.89010734
  -exchange      EXHF   =         0.00000000
  -V(xc)+E(xc)   XCENC  =       639.69647069
  PAW double counting   =     21180.12034029   -21923.78383515
  entropy T*S    EENTRO =         0.00000000
  eigenvalues    EBANDS =     -1801.02505508
  atomic energy  EATOM  =     24304.10294433
  Solvation  Ediel_sol  =         0.00000000
  ---------------------------------------------------
  free energy    TOTEN  =       -92.52449817 eV

  energy without entropy =      -92.52449817  energy(sigma->0) =      -92.52449817


--------------------------------------------------------------------------------------------------------




--------------------------------------- Iteration      1(  12)  ---------------------------------------


    POTLOK:  cpu time      0.0470: real time      0.0481
    SETDIJ:  cpu time      0.0086: real time      0.0086
     EDDAV:  cpu time      7.9553: real time      8.0141
 BZINTS: Fermi energy:    8.582582;  156.000000 electrons
         Band energy:-0.179970E+04;  BLOECHL correction:   -0.019755
       DOS:  cpu time      0.1320: real time      0.1330
    CHARGE:  cpu time      0.1818: real time      0.1829
    MIXING:  cpu time      0.0023: real time      0.0023
    --------------------------------------------
      LOOP:  cpu time      8.3270: real time      8.3889

 eigenvalue-minimisations  : 51488
 total energy-change (2. order) : 0.1328102E+00  (-0.5514998E+00)
 number of electron     155.9999844 magnetization       8.0927342
 augmentation part       84.8344595 magnetization       5.8356218

 Broyden mixing:
  rms(total) = 0.80333E+00    rms(broyden)= 0.80328E+00
  rms(prec ) = 0.96780E+00
  weight for this iteration     100.00

 eigenvalues of (default mixing * dielectric matrix)
  average eigenvalue GAMMA=   0.4493
  1.0749  0.7259  0.7259  0.2978  0.1298  0.1018  0.0892

 Free energy of the ion-electron system (eV)
  ---------------------------------------------------
  alpha Z        PSCENC =       989.47749747
  Ewald energy   TEWEN  =    -17495.22275337
  -Hartree energ DENC   =     -5983.77871814
  -exchange      EXHF   =         0.00000000
  -V(xc)+E(xc)   XCENC  =       640.35400498
  PAW double counting   =     21288.02082604   -22035.65024817
  entropy T*S    EENTRO =         0.00000000
  eigenvalues    EBANDS =     -1799.69524109
  atomic energy  EATOM  =     24304.10294433
  Solvation  Ediel_sol  =         0.00000000
  ---------------------------------------------------
  free energy    TOTEN  =       -92.39168796 eV

  energy without entropy =      -92.39168796  energy(sigma->0) =      -92.39168796


--------------------------------------------------------------------------------------------------------




--------------------------------------- Iteration      1(  13)  ---------------------------------------


    POTLOK:  cpu time      0.0400: real time      0.0488
    SETDIJ:  cpu time      0.0085: real time      0.0086
     EDDAV:  cpu time      8.0849: real time      8.1469
 BZINTS: Fermi energy:    8.565520;  156.000000 electrons
         Band energy:-0.180277E+04;  BLOECHL correction:   -0.021307
       DOS:  cpu time      0.2260: real time      0.2274
    CHARGE:  cpu time      0.1776: real time      0.1787
    MIXING:  cpu time      0.0022: real time      0.0023
    --------------------------------------------
      LOOP:  cpu time      8.5394: real time      8.6125

 eigenvalue-minimisations  : 51456
 total energy-change (2. order) :-0.3365966E+00  (-0.3827946E+00)
 number of electron     155.9999844 magnetization       8.3005723
 augmentation part       84.9035752 magnetization       5.7819880

 Broyden mixing:
  rms(total) = 0.11580E+01    rms(broyden)= 0.11580E+01
  rms(prec ) = 0.14349E+01
  weight for this iteration     100.00

 eigenvalues of (default mixing * dielectric matrix)
  average eigenvalue GAMMA=   0.4591
  1.1566  0.8797  0.8797  0.3096  0.1451  0.0908  0.1048  0.1064

 Free energy of the ion-electron system (eV)
  ---------------------------------------------------
  alpha Z        PSCENC =       989.47749747
  Ewald energy   TEWEN  =    -17495.22275337
  -Hartree energ DENC   =     -5979.16158409
  -exchange      EXHF   =         0.00000000
  -V(xc)+E(xc)   XCENC  =       640.77255222
  PAW double counting   =     21358.85148088   -22108.77606835
  entropy T*S    EENTRO =         0.00000000
  eigenvalues    EBANDS =     -1802.77235367
  atomic energy  EATOM  =     24304.10294433
  Solvation  Ediel_sol  =         0.00000000
  ---------------------------------------------------
  free energy    TOTEN  =       -92.72828458 eV

  energy without entropy =      -92.72828458  energy(sigma->0) =      -92.72828458


--------------------------------------------------------------------------------------------------------




--------------------------------------- Iteration      1(  14)  ---------------------------------------


    POTLOK:  cpu time      0.0393: real time      0.0481
    SETDIJ:  cpu time      0.0085: real time      0.0086
     EDDAV:  cpu time      8.0516: real time      8.1128
 BZINTS: Fermi energy:    8.587033;  156.000000 electrons
         Band energy:-0.180841E+04;  BLOECHL correction:   -0.020574
       DOS:  cpu time      0.1337: real time      0.1347
[...]
    113      21.8656      0.00000
    114      22.3139      0.00000
    115      22.3700      0.00000
    116      22.5336      0.00000
    117      22.7094      0.00000
    118      23.3641      0.00000
    119      23.5166      0.00000
    120      25.5597      0.00000
    121      25.5869      0.00000
    122      25.6388      0.00000
    123      25.9958      0.00000
    124      26.2163      0.00000
    125      26.5649      0.00000
    126      26.7563      0.00000
    127      27.0199      0.00000
    128      27.3869      0.00000


--------------------------------------------------------------------------------------------------------


 soft charge-density along one line, spin component           1
         0         1         2         3         4         5         6         7         8         9
 total charge-density along one line
 
 soft charge-density along one line, spin component           2
         0         1         2         3         4         5         6         7         8         9
 total charge-density along one line
 
 pseudopotential strength for first ion, spin component:           1
-43.813   0.000   0.000   7.117  -0.000  -0.000  -0.000   0.005
  0.000 -43.846  -0.000  -0.000   7.131   0.000   0.000  -0.000
  0.000  -0.000 -43.765  -0.000   0.000   7.097  -0.000   0.000
  7.117  -0.000  -0.000   5.805  -0.000  -0.000   0.000  -0.002
 -0.000   7.131   0.000  -0.000   5.801   0.000  -0.000   0.000
 -0.000   0.000   7.097  -0.000   0.000   5.810   0.000  -0.000
 -0.000   0.000  -0.000   0.000  -0.000   0.000  -1.158  -0.000
  0.005  -0.000   0.000  -0.002   0.000  -0.000  -0.000  -1.181
  0.000   0.008   0.000  -0.000  -0.002  -0.000  -0.000  -0.000
  0.000  -0.000   0.000  -0.000   0.000   0.003   0.000   0.000
  0.000  -0.003  -0.000  -0.000   0.003   0.000  -0.000  -0.000
 -0.000   0.000  -0.000   0.000  -0.000   0.000  -1.687  -0.000
  0.005  -0.000   0.000  -0.002   0.000  -0.000  -0.000  -1.709
  0.000   0.008   0.000  -0.000  -0.002  -0.000  -0.000  -0.000
  0.000   0.000   0.000  -0.000   0.000   0.003   0.000   0.000
  0.000  -0.003  -0.000  -0.000   0.003   0.000  -0.000  -0.000
  0.000   0.000   0.000   0.000   0.002   0.000  -0.000  -0.000
  0.000   0.001   0.000   0.000   0.005   0.000  -0.000  -0.000
 pseudopotential strength for first ion, spin component:           2
-46.253   0.000   0.000   8.142  -0.000  -0.000  -0.000   0.007
  0.000 -46.308  -0.000  -0.000   8.163   0.000  -0.000  -0.000
  0.000  -0.000 -46.097  -0.000   0.000   8.078  -0.000  -0.000
  8.142  -0.000  -0.000   5.511  -0.000  -0.000   0.000  -0.004
 -0.000   8.163   0.000  -0.000   5.506   0.000   0.000   0.000
 -0.000   0.000   8.078  -0.000   0.000   5.525   0.000   0.000
 -0.000  -0.000  -0.000   0.000   0.000   0.000  -3.048  -0.000
  0.007  -0.000  -0.000  -0.004   0.000   0.000  -0.000  -3.218
  0.000   0.017   0.000  -0.000  -0.007  -0.000  -0.000  -0.000
 -0.000  -0.000   0.030   0.000   0.000  -0.013   0.000   0.000
  0.000   0.011  -0.000  -0.000  -0.004   0.000  -0.000  -0.000
 -0.000  -0.000  -0.000   0.000   0.000   0.000  -3.546  -0.000
  0.007  -0.000  -0.000  -0.004   0.000   0.000  -0.000  -3.713
  0.000   0.016   0.000  -0.000  -0.007  -0.000  -0.000  -0.000
 -0.000  -0.000   0.029   0.000   0.000  -0.012   0.000   0.000
  0.000   0.011  -0.000  -0.000  -0.004   0.000  -0.000  -0.000
  0.000  -0.006   0.000   0.000   0.004   0.000  -0.000  -0.000
  0.000  -0.015   0.000   0.000   0.010   0.000  -0.000  -0.000
 total augmentation occupancy for first ion, spin component:           1
  1.992   0.000   0.000  -0.029   0.000   0.000   0.000  -0.008  -0.000   0.000   0.000   0.000   0.008   0.000   0.000   0.000
  0.000   1.992  -0.000   0.000  -0.029   0.000   0.000   0.000  -0.005   0.000   0.003   0.000   0.000   0.005   0.000  -0.003
  0.000  -0.000   1.992   0.000   0.000  -0.028   0.000   0.000   0.000  -0.001  -0.000  -0.000   0.000   0.000   0.001   0.000
 -0.029   0.000   0.000   0.157  -0.000   0.000  -0.000  -0.022   0.000   0.000   0.000   0.000   0.030   0.000   0.000   0.000
  0.000  -0.029   0.000  -0.000   0.157  -0.000  -0.000   0.000  -0.012   0.000   0.022   0.000   0.000   0.005   0.000  -0.036
  0.000   0.000  -0.028   0.000  -0.000   0.138  -0.000   0.000   0.000   0.020  -0.000   0.000  -0.000   0.000  -0.050   0.000
  0.000   0.000   0.000  -0.000  -0.000  -0.000   3.065   0.000   0.000   0.000   0.000  -1.552   0.000   0.000   0.000  -0.000
 -0.008   0.000   0.000  -0.022   0.000   0.000   0.000   2.985   0.000   0.000   0.000  -0.000  -1.796   0.000   0.000   0.000
 -0.000  -0.005   0.000   0.000  -0.012   0.000   0.000   0.000   3.432   0.000   0.223   0.000   0.000  -1.850   0.000  -0.140
  0.000   0.000  -0.001   0.000   0.000   0.020   0.000   0.000   0.000   2.779   0.000   0.000   0.000   0.000  -1.368  -0.000
  0.000   0.003  -0.000   0.000   0.022  -0.000   0.000   0.000   0.223   0.000   3.012   0.000   0.000  -0.139   0.000  -1.584
  0.000   0.000  -0.000   0.000   0.000   0.000  -1.552  -0.000   0.000   0.000   0.000   1.495   0.000   0.000   0.000  -0.000
  0.008   0.000   0.000   0.030   0.000  -0.000   0.000  -1.796   0.000   0.000   0.000   0.000   1.866   0.000   0.000   0.000
  0.000   0.005   0.000   0.000   0.005   0.000   0.000   0.000  -1.850   0.000  -0.139   0.000   0.000   1.558   0.000   0.052
  0.000   0.000   0.001   0.000   0.000  -0.050   0.000   0.000   0.000  -1.368   0.000   0.000   0.000   0.000   1.330   0.000
  0.000  -0.003   0.000   0.000  -0.036   0.000  -0.000   0.000  -0.140  -0.000  -1.584  -0.000   0.000   0.052   0.000   1.413
  0.000  -0.000   0.000   0.000  -0.002   0.000   0.000   0.000  -0.123   0.000   0.173   0.000   0.000   0.071   0.000  -0.121
  0.000   0.001  -0.000   0.000   0.000   0.000   0.000   0.000   0.011   0.000  -0.012   0.000   0.000  -0.005  -0.000   0.007
 total augmentation occupancy for first ion, spin component:           2
  0.002   0.000   0.000   0.009   0.000   0.000   0.000   0.001   0.000   0.000   0.000   0.000  -0.001   0.000   0.000   0.000
  0.000   0.002  -0.000   0.000   0.009   0.000  -0.000   0.000   0.004   0.000   0.005  -0.000   0.000  -0.004   0.000  -0.005
  0.000  -0.000   0.002   0.000   0.000   0.010   0.000   0.000   0.000   0.010   0.000   0.000  -0.000   0.000  -0.011   0.000
  0.009   0.000   0.000  -0.007  -0.000   0.000   0.000   0.023   0.000   0.000   0.000   0.000  -0.017   0.000   0.000   0.000
  0.000   0.009   0.000  -0.000  -0.003   0.000  -0.000   0.000   0.001   0.000  -0.032  -0.000   0.000  -0.010   0.000   0.010
  0.000   0.000   0.010   0.000   0.000  -0.001  -0.000   0.000   0.000  -0.060  -0.000  -0.000  -0.000   0.000   0.007  -0.000
  0.000  -0.000   0.000   0.000  -0.000  -0.000  -2.556   0.000   0.000   0.000   0.000   1.202  -0.000   0.000   0.000  -0.000
  0.001   0.000   0.000   0.023   0.000   0.000   0.000  -2.370   0.000   0.000  -0.000   0.000   0.901   0.000   0.000   0.000
  0.000   0.004   0.000   0.000   0.001   0.000   0.000   0.000  -2.947   0.000  -0.125   0.000   0.000   1.336   0.000   0.095
  0.000   0.000   0.010   0.000   0.000  -0.060   0.000   0.000   0.000  -2.243   0.000   0.000   0.000   0.000   0.896   0.000
  0.000   0.005   0.000   0.000  -0.032  -0.000   0.000  -0.000  -0.125   0.000  -2.576  -0.000   0.000   0.097   0.000   1.016
  0.000  -0.000   0.000   0.000  -0.000  -0.000   1.202   0.000   0.000   0.000  -0.000  -0.397  -0.000   0.000   0.000  -0.000
 -0.001   0.000  -0.000  -0.017   0.000  -0.000  -0.000   0.901   0.000   0.000   0.000  -0.000  -0.107  -0.000   0.000  -0.000
  0.000  -0.004   0.000   0.000  -0.010   0.000   0.000   0.000   1.336   0.000   0.097   0.000  -0.000  -0.506   0.000  -0.099
  0.000   0.000  -0.011   0.000   0.000   0.007   0.000   0.000   0.000   0.896   0.000   0.000   0.000   0.000  -0.155   0.000
  0.000  -0.005   0.000   0.000   0.010  -0.000  -0.000   0.000   0.095   0.000   1.016  -0.000  -0.000  -0.099   0.000  -0.223
  0.000  -0.001   0.000   0.000  -0.018  -0.000   0.000  -0.000   0.043  -0.000  -0.059   0.000   0.000  -0.048  -0.000   0.050
  0.000  -0.000   0.000   0.000  -0.000  -0.000   0.000   0.000  -0.008   0.000   0.007   0.000   0.000   0.002   0.000  -0.002


------------------------ aborting loop because EDIFF is reached ----------------------------------------





 total charge

# of ion       s       p       d       tot
------------------------------------------
    1        0.329   6.277   5.959  12.565
    2        0.327   6.278   5.986  12.591
    3        0.322   6.270   5.957  12.550
    4        0.330   6.281   5.947  12.558
    5        0.329   6.279   5.966  12.574
    6        0.325   6.279   5.962  12.566
    7        0.329   6.277   5.959  12.565
    8        0.327   6.278   5.986  12.591
    9        0.322   6.270   5.957  12.550
   10        0.719   0.578   7.994   9.292
   11        0.725   0.581   7.999   9.305
   12        0.714   0.606   7.993   9.313
--------------------------------------------------
tot          5.098  58.256  77.666 141.020



 magnetization (x)

# of ion       s       p       d       tot
------------------------------------------
    1       -0.017  -0.005  -2.843  -2.865
    2        0.004  -0.013   2.822   2.813
    3        0.013   0.001   2.828   2.842
    4       -0.018  -0.020  -2.831  -2.870
    5        0.015   0.018   2.772   2.805
    6        0.004  -0.015   2.930   2.919
    7       -0.017  -0.005  -2.843  -2.865
    8        0.004  -0.013   2.822   2.813
    9        0.013   0.001   2.828   2.842
   10        0.006   0.015  -0.073  -0.052
   11       -0.007  -0.018   0.048   0.023
   12       -0.041  -0.098   0.414   0.275
--------------------------------------------------
tot         -0.042  -0.151   8.873   8.680
 
    CHARGE:  cpu time      0.1765: real time      0.1776
    FORLOC:  cpu time      0.0020: real time      0.0022
    FORNL :  cpu time      0.8882: real time      0.8930
    STRESS:  cpu time      4.8629: real time      4.9041
    FORCOR:  cpu time      0.0244: real time      0.0245
    FORHAR:  cpu time      0.0030: real time      0.0030
    MIXING:  cpu time      0.0107: real time      0.0108
    OFIELD:  cpu time      0.0017: real time      0.0019

  FORCE on cell =-STRESS in cart. coord.  units (eV):
  Direction    XX          YY          ZZ          XY          YZ          ZX
  --------------------------------------------------------------------------------------
  Alpha Z   989.47750   989.47750   989.47750
  Ewald   -5813.21099 -5813.21099 -5868.82388     0.00000     0.00000     0.00000
  Hartree  2002.37210  2002.37210  1950.65666    -0.00000    -0.00000    -0.00000
  E(xc)    -941.22246  -941.22246  -941.17606     0.00000    -0.00000    -0.00000
  Local     854.17879   854.17879   969.94795    -0.00000     0.00000     0.00000
  n-local  -228.96471  -244.16675  -238.02744    12.38797     0.06585     0.07880
  augment  1443.13843  1443.13843  1438.69934     0.00000    -0.00000    -0.00000
  Kinetic  1693.34079  1679.62446  1684.00014     1.69814     0.07320    -0.14366
  Fock        0.00000     0.00000     0.00000     0.00000     0.00000     0.00000
  -------------------------------------------------------------------------------------
  Total     -15.34975   -15.34975   -15.24577     0.00000     0.00000     0.00000
  in kB    -142.98264  -142.98264  -142.01415     0.00000     0.00000     0.00000
  external pressure =     -142.66 kB  Pullay stress =        0.00 kB


 VOLUME and BASIS-vectors are now :
 -----------------------------------------------------------------------------
  energy-cutoff  :      520.00
  volume of cell :      172.00
      direct lattice vectors                 reciprocal lattice vectors
     3.838083469  0.000000000  0.000000000     0.260546705  0.000000000  0.000000000
     0.000000000  3.838083469  0.000000000     0.000000000  0.260546705  0.000000000
     0.000000000  0.000000000 11.676148669     0.000000000  0.000000000  0.085644679

  length of vectors
     3.838083469  3.838083469 11.676148669     0.260546705  0.260546705  0.085644679


 FORCES acting on ions
    electron-ion (+dipol)            ewald-force                    non-local-force                 convergence-correction
 -----------------------------------------------------------------------------------------------
   -.702E-14 0.207E-12 0.642E+01   -.427E-13 -.442E-14 -.733E+01   0.487E-19 -.671E-18 0.918E+00   -.154E-12 0.746E-14 -.179E-02
   -.190E-13 -.446E-12 -.160E+02   -.456E-13 0.138E-13 0.162E+02   -.454E-19 0.370E-18 -.189E+00   -.164E-12 -.957E-14 0.130E-01
   -.236E-13 -.986E-12 -.591E+02   -.271E-13 -.235E-14 0.579E+02   -.692E-19 -.425E-19 0.123E+01   -.168E-12 -.376E-13 -.117E-01
   0.602E-12 -.573E-11 0.101E+03   0.997E-14 -.102E-13 -.980E+02   0.105E-17 -.108E-18 -.305E+01   0.168E-12 0.602E-13 0.291E-01
   0.662E-12 -.334E-11 0.140E+03   0.649E-13 -.497E-13 -.137E+03   0.293E-18 -.977E-18 -.311E+01   0.139E-12 0.788E-13 0.208E-01
   0.662E-12 -.375E-11 -.958E+02   -.249E-13 0.218E-14 0.961E+02   0.266E-18 -.340E-18 -.291E+00   0.247E-12 -.272E-13 -.460E-01
   0.628E-12 0.330E-12 0.642E+01   0.496E-13 0.115E-13 -.733E+01   0.918E-20 -.105E-18 0.918E+00   0.263E-12 -.114E-13 -.179E-02
   0.635E-12 0.498E-12 -.160E+02   0.710E-13 -.659E-14 0.162E+02   -.516E-18 0.173E-19 -.189E+00   0.265E-12 -.370E-14 0.130E-01
   0.605E-12 -.532E-12 -.591E+02   0.511E-13 -.148E-13 0.579E+02   -.366E-18 -.525E-18 0.123E+01   0.268E-12 0.425E-15 -.117E-01
   -.195E-13 -.272E-13 0.182E+02   -.130E-13 0.223E-13 -.188E+02   0.120E-17 0.115E-17 0.526E+00   -.417E-13 -.123E-13 0.208E-01
   -.248E-13 -.618E-12 0.258E+02   -.715E-13 0.456E-13 -.263E+02   0.476E-18 0.816E-18 0.509E+00   -.330E-13 -.795E-14 0.116E-01
   -.142E-13 0.529E-14 -.511E+02   -.413E-13 -.222E-13 0.509E+02   -.276E-18 0.530E-18 0.292E+00   -.399E-13 -.151E-13 -.331E-01
 -----------------------------------------------------------------------------------------------
   0.369E-11 -.144E-10 0.120E+01   -.194E-13 -.147E-13 -.639E-13   0.208E-17 0.113E-18 -.120E+01   0.749E-12 0.220E-13 0.218E-02
 
 
 POSITION                                       TOTAL-FORCE (eV/Angst)
 -----------------------------------------------------------------------------------
      0.00000      1.91904      1.94588         0.000000     -0.000000      0.002839
      0.00000      1.91904      5.83103         0.000000      0.000000      0.001634
      0.00000      1.91904      9.70490         0.000000     -0.000000      0.004301
      1.91904      1.91904      0.10223         0.000000     -0.000000      0.013691
      1.91904      1.91904      4.02987        -0.000000     -0.000000     -0.017128
      1.91904      1.91904      7.73416        -0.000000      0.000000      0.024614
      1.91904      0.00000      1.94588        -0.000000     -0.000000      0.002839
      1.91904      0.00000      5.83103         0.000000     -0.000000      0.001634
      1.91904      0.00000      9.70490         0.000000     -0.000000      0.004301
      0.00000      0.00000     11.63315         0.000000     -0.000000     -0.031161
      0.00000      0.00000      3.82879         0.000000     -0.000000     -0.023085
      0.00000      0.00000      7.76508         0.000000     -0.000000      0.015519
 -----------------------------------------------------------------------------------
    total drift:                                0.000000     -0.000000     -0.001760


--------------------------------------------------------------------------------------------------------



  FREE ENERGIE OF THE ION-ELECTRON SYSTEM (eV)
  ---------------------------------------------------
  free  energy   TOTEN  =       -92.46606682 eV

  energy  without entropy=      -92.46606682  energy(sigma->0) =      -92.46606682
 


--------------------------------------------------------------------------------------------------------


    POTLOK:  cpu time      0.0411: real time      0.0414


--------------------------------------------------------------------------------------------------------


     LOOP+:  cpu time    231.5985: real time    233.7674
 -----------------------------------------------------------------------------
|                                                                             |
|           W    W    AA    RRRRR   N    N  II  N    N   GGGG   !!!           |
|           W    W   A  A   R    R  NN   N  II  NN   N  G    G  !!!           |
|           W    W  A    A  R    R  N N  N  II  N N  N  G       !!!           |
|           W WW W  AAAAAA  RRRRR   N  N N  II  N  N N  G  GGG   !            |
|           WW  WW  A    A  R   R   N   NN  II  N   NN  G    G                |
|           W    W  A    A  R    R  N    N  II  N    N   GGGG   !!!           |
|                                                                             |
|     Tetrahedron method does not include variations of the Fermi             |
|     occupations, so forces and stress will be inaccurate. We suggest        |
|     using a different smearing scheme ISMEAR = 1 or 2 for metals in         |
|     relaxations.                                                            |
|                                                                             |
 -----------------------------------------------------------------------------

    4ORBIT:  cpu time      0.0000: real time      0.0000



 total charge

# of ion       s       p       d       tot
------------------------------------------
    1        0.329   6.277   5.959  12.565
    2        0.327   6.278   5.986  12.591
    3        0.322   6.270   5.957  12.550
    4        0.330   6.281   5.947  12.558
    5        0.329   6.279   5.966  12.574
    6        0.325   6.279   5.962  12.566
    7        0.329   6.277   5.959  12.565
    8        0.327   6.278   5.986  12.591
    9        0.322   6.270   5.957  12.550
   10        0.719   0.578   7.994   9.292
   11        0.725   0.581   7.999   9.305
   12        0.714   0.606   7.993   9.313
--------------------------------------------------
tot          5.098  58.256  77.666 141.020



 magnetization (x)

# of ion       s       p       d       tot
------------------------------------------
    1       -0.017  -0.005  -2.843  -2.865
    2        0.004  -0.013   2.822   2.813
    3        0.013   0.001   2.828   2.842
    4       -0.018  -0.020  -2.831  -2.870
    5        0.015   0.018   2.772   2.805
    6        0.004  -0.015   2.930   2.919
    7       -0.017  -0.005  -2.843  -2.865
    8        0.004  -0.013   2.822   2.813
    9        0.013   0.001   2.828   2.842
   10        0.006   0.015  -0.073  -0.052
   11       -0.007  -0.018   0.048   0.023
   12       -0.041  -0.098   0.414   0.275
--------------------------------------------------
tot         -0.042  -0.151   8.873   8.680
 
 BZINTS: Fermi energy:    8.583447;  156.000000 electrons
         Band energy:-0.181811E+04;  BLOECHL correction:   -0.020784

 total amount of memory used by VASP MPI-rank0   206243. kBytes
=======================================================================

   base      :      30000. kBytes
   nonl-proj :     113922. kBytes
   fftplans  :       1055. kBytes
   grid      :       8252. kBytes
   one-center:        373. kBytes
   wavefun   :      52641. kBytes
 
  
  
 General timing and accounting informations for this job:
 ========================================================
  
                  Total CPU time used (sec):      251.536
                            User time (sec):      243.310
                          System time (sec):        8.226
                         Elapsed time (sec):      259.833
  
                   Maximum memory used (kb):      880092.
                   Average memory used (kb):          N/A
  
                          Minor page faults:       196067
                          Major page faults:          145
                 Voluntary context switches:         8066
